
  ___ ___ ___ _ _ _  
 |   |   |_  | | | | 
 | | | | | . | | | | 
 |__ |  _|___|_____|  1.1.0
 |___|_|             

User:   amedford6@iw-k35-12.pace.gatech.edu
Date:   Wed Mar  1 14:15:30 2017
Arch:   x86_64
Pid:    27736
Python: 2.7.9
gpaw:   /nv/hp22/amedford6/medford-shared/INSTALL/lib/python2.7/site-packages/gpaw
_gpaw:  /nv/hp22/amedford6/medford-shared/INSTALL/bin/gpaw-python
ase:    /nv/hp22/amedford6/medford-shared/INSTALL/lib/python2.7/site-packages/ase (version 3.12.0)
numpy:  /usr/local/pacerepov1/python/2.7/intel-14.0.2/lib/python2.7/site-packages/numpy (version 1.9.0)
scipy:  /usr/local/pacerepov1/python/2.7/intel-14.0.2/lib/python2.7/site-packages/scipy (version 0.15.1)
units:  Angstrom and eV
cores:  24

Memory estimate
---------------
Process memory now: 54.22 MiB
Calculator  356.89 MiB
    Density  59.73 MiB
        Arrays  7.88 MiB
        Localized functions  50.06 MiB
        Mixer  1.79 MiB
    Hamiltonian  14.14 MiB
        Arrays  5.15 MiB
        XC  0.00 MiB
        Poisson  5.87 MiB
        vbar  3.11 MiB
    Wavefunctions  283.02 MiB
        Arrays psit_nG  90.84 MiB
        Eigensolver  93.83 MiB
        Projections  0.19 MiB
        Projectors  6.96 MiB
        Overlap op  91.20 MiB

Positions:
  0 Pt    1.4213    0.8206    6.0000
  1 Pt    4.2639    0.8206    6.0000
  2 Pt    0.0000    3.2823    6.0000
  3 Pt    2.8426    3.2823    6.0000
  4 Pt    0.0000    1.6412    8.3209
  5 Pt    2.8426    1.6412    8.3209
  6 Pt    1.4213    4.1029    8.3209
  7 Pt    4.2639    4.1029    8.3209
  8 Pt    0.0000    0.0000   10.6419
  9 Pt    2.8426    0.0000   10.6419
 10 Pt    1.4213    2.4617   10.6419
 11 Pt    4.2639    2.4617   10.6419
 12 C     1.4213    0.8206   12.1419
 13 O     1.4213    0.8206   15.1419

    .-------------.  
   /|             |  
  / |             |  
 *  |             |  
 |  |O            |  
 |  |             |  
 |  |             |  
 |  |             |  
 |  |C            |  
 |  | Pt     Pt   |  
 Pt |   Pt        |  
 |  |  Pt     Pt  |  
 |Pt|    Pt       |  
 |  |             |  
 | Pt     Pt      |  
 |  |Pt     Pt    |  
 |  |             |  
 |  |             |  
 |  |             |  
 |  |             |  
 |  .-------------.  
 | /             /   
 |/             /    
 *-------------*     

Unit Cell:
           Periodic     X           Y           Z      Points  Spacing
  --------------------------------------------------------------------
  1. axis:    yes    5.685139    0.000000    0.000000    36     0.1579
  2. axis:    yes    0.000000    4.923474    0.000000    32     0.1539
  3. axis:    no     0.000000    0.000000   16.641896   104     0.1600

Pt-setup:
  name   : Platinum
  id     : 5ed695806aff0c961dba1a84acd7f4b2
  Z      : 78
  valence: 16
  core   : 62
  charge : 0.0
  file   : /gpfs/pace1/project/pme/pme1/medford-share/INSTALL/gpaw-data/gpaw-setups-0.9.20000/Pt.PBE.gz
  cutoffs: 1.29(comp), 2.26(filt), 2.26(core), lmax=2
  valence states:
            energy   radius
    6s(1.00)  -5.628   1.307
    5p(6.00) -56.051   1.371
    6p(0.00)  -0.845   1.371
    5d(9.00)  -6.153   1.307
    *s      21.583   1.307
    *d      21.058   1.307

Using partial waves for Pt as LCAO basis

C-setup:
  name   : Carbon
  id     : 4aa54d4b901d75f77cc0ea3eec22967b
  Z      : 6
  valence: 4
  core   : 2
  charge : 0.0
  file   : /gpfs/pace1/project/pme/pme1/medford-share/INSTALL/gpaw-data/gpaw-setups-0.9.20000/C.PBE.gz
  cutoffs: 0.64(comp), 1.14(filt), 1.14(core), lmax=2
  valence states:
            energy   radius
    2s(2.00) -13.751   0.635
    2p(2.00)  -5.284   0.635
    *s      13.461   0.635
    *p      21.927   0.635
    *d       0.000   0.635

Using partial waves for C as LCAO basis

O-setup:
  name   : Oxygen
  id     : 32ecd46bf208036f09c70b0ec9a88b78
  Z      : 8
  valence: 6
  core   : 2
  charge : 0.0
  file   : /gpfs/pace1/project/pme/pme1/medford-share/INSTALL/gpaw-data/gpaw-setups-0.9.20000/O.PBE.gz
  cutoffs: 0.67(comp), 1.17(filt), 0.83(core), lmax=2
  valence states:
            energy   radius
    2s(2.00) -23.961   0.688
    2p(4.00)  -9.029   0.598
    *s       3.251   0.688
    *p      18.182   0.598
    *d       0.000   0.619

Using partial waves for O as LCAO basis

Using the BEEF-vdW Exchange-Correlation Functional.
Spin-Paired Calculation
Total Charge: 0.000000
Fermi Temperature: 0.100000
Wave functions: Uniform real-space grid
Kinetic energy operator: 6*3+1=19 point O(h^6) finite-difference Laplacian
Eigensolver: RMM-DIIS eigensolver
       keep_htpsit: True
       Block size: 10
       DIIS iterations: 3
       Threshold for DIIS: 1.0e-16
       Limit lambda: False
       use_rayleigh: False
       trial_step: 0.1
XC and Coulomb potentials evaluated on a 72*64*208 grid
Interpolation: tri-quintic (5. degree polynomial)
Poisson solver: Jacobi solver with 4 multi-grid levels
    Coarsest grid: 9 x 8 x 26 points
    Warning: Coarse grid has more than 24 points.
             More multi-grid levels recommended.
    Stencil: 6*3+1=19 point O(h^6) finite-difference Laplacian
    Tolerance: 1.000000e-12
    Max iterations: 1000
Dipole correction along z-axis
Reference Energy: -6007572.833626

Total number of cores used: 24
Parallelization over k-points: 8
Domain Decomposition: 1 x 1 x 3
MatrixOperator buffer_size: default value or 
                            see value of nblock in input file
Diagonalizer layout: Serial LAPACK
Orthonormalizer layout: Serial LAPACK

Symmetries present (total): 1

  ( 1  0  0)
  ( 0  1  0)
  ( 0  0  1)

16 k-points: 4 x 4 x 1 Monkhorst-Pack grid
8 k-points in the Irreducible Part of the Brillouin Zone

          k-points in crystal coordinates                weights
   0:     0.12500000   -0.37500000    0.00000000          2/16
   1:     0.12500000   -0.12500000    0.00000000          2/16
   2:     0.12500000    0.12500000    0.00000000          2/16
   3:     0.12500000    0.37500000    0.00000000          2/16
   4:     0.37500000   -0.37500000    0.00000000          2/16
   5:     0.37500000   -0.12500000    0.00000000          2/16
   6:     0.37500000    0.12500000    0.00000000          2/16
   7:     0.37500000    0.37500000    0.00000000          2/16

Mixer Type: Mixer
Linear Mixing Parameter: 0.07
Mixing with 3 Old Densities
Damping of Long Wave Oscillations: 120

Convergence Criteria:
    Total Energy Change: 0.0005 eV / electron
    Integral of Absolute Density Change: 0.0001 electrons
    Integral of Absolute Eigenstate Change: 4e-08 eV^2
Number of Atoms: 14
Number of Atomic Orbitals: 152
Number of Bands in Calculation: 152
Bands to Converge: Occupied States Only
Number of Valence Electrons: 202
                     log10-error:    Total        Iterations:
           Time      WFS    Density  Energy       Fermi  Poisson
iter:   1  14:20:59  +2.50         -3984.441732    2      389    
iter:   2  14:22:23  +0.45         -3993.082195    3             
iter:   3  14:23:47  -0.03         -3994.879606    3             
iter:   4  14:28:08  -0.33  -1.40  -4009.774917    34     323    
iter:   5  14:32:23  -0.54  -1.17  -3998.004505    37     306    
iter:   6  14:35:48  -0.91  -1.29  -3987.668569    33     199    
iter:   7  14:39:33  -1.20  -1.51  -3986.467606    36     238    
iter:   8  14:43:56  -0.64  -1.54  -4039.123345    36     322    
iter:   9  14:48:12  -1.20  -1.12  -3993.618233    33     305    
iter:  10  14:52:10  -1.58  -1.42  -3984.788276    36     268    
iter:  11  14:55:27  -1.86  -1.68  -3984.786127    3      183    
iter:  12  14:58:53  -1.76  -1.70  -3984.662103    4      205    
iter:  13  15:02:17  -1.69  -1.76  -3987.435715    5      202    
iter:  14  15:05:44  -1.53  -1.49  -3987.758856    2      201    
iter:  15  15:08:21  -1.45  -1.52  -3992.262106    33     97     
iter:  16  15:11:40  -2.21  -1.36  -3985.680763    36     192    
iter:  17  15:14:53  -2.57  -1.69  -3984.793977    4      173    
iter:  18  15:18:08  -2.18  -1.79  -3985.422907    3      177    
iter:  19  15:20:30  -2.61  -1.64  -3986.067975    3      67     
iter:  20  15:23:55  -1.44  -1.57  -3994.832074    35     213    
iter:  21  15:27:08  -1.54  -1.35  -3987.194428    3      178    
iter:  22  15:30:35  -2.23  -1.54  -3985.786571    4      215    
iter:  23  15:33:52  -2.46  -1.65  -3985.035891    4      192    
iter:  24  15:36:50  -2.55  -1.75  -3984.540646    3      151    
iter:  25  15:40:19  -2.44  -1.96  -3985.166982    3      213    
iter:  26  15:43:42  -2.45  -1.68  -3985.635444    3      208    
iter:  27  15:46:32  -2.53  -1.71  -3984.673369    3      130    
iter:  28  15:49:18  -3.28  -1.89  -3984.620581    3      118    
iter:  29  15:51:38  -3.78  -1.95  -3984.532100    3      61     
iter:  30  15:54:44  -2.80  -2.02  -3984.557769    4      166    
iter:  31  15:57:27  -2.92  -1.87  -3984.783314    3      118    
iter:  32  16:00:13  -3.92  -1.81  -3984.733102    3      123    
iter:  33  16:02:38  -3.85  -1.81  -3984.397692    4      68     
iter:  34  16:05:35  -3.68  -2.05  -3984.790818    3      146    
iter:  35  16:07:49  -3.61  -1.78  -3984.691461    3      51     
iter:  36  16:10:43  -2.75  -1.82  -3984.471070    4      142    
iter:  37  16:13:17  -3.14  -1.98  -3984.553756    3      90     
iter:  38  16:16:07  -2.94  -1.92  -3984.350584    4      130    
iter:  39  16:18:25  -3.34  -2.29  -3984.351729    3      57     
iter:  40  16:21:17  -2.58  -2.29  -3984.538633    3      138    
iter:  41  16:23:58  -3.24  -2.02  -3984.404893    3      109    
iter:  42  16:26:54  -2.68  -2.24  -3985.364473    3      141    
iter:  43  16:29:38  -3.13  -1.78  -3984.363308    3      120    
iter:  44  16:31:58  -4.03  -2.45  -3984.364643    3      65     
iter:  45  16:34:46  -3.12  -2.47  -3984.571310    3      126    
iter:  46  16:37:31  -3.75  -1.99  -3984.454922    3      115    
iter:  47  16:39:50  -4.06  -2.15  -3984.359600    3      62     
iter:  48  16:42:13  -4.71  -2.57  -3984.390042    3      71     
iter:  49  16:45:03  -3.47  -2.32  -3984.505199    3      132    
iter:  50  16:47:45  -3.87  -2.13  -3984.368170    3      108    
iter:  51  16:50:01  -4.52  -2.51  -3984.360096    3      56     
iter:  52  16:52:04  -4.99  -2.77  -3984.359705    2      26     
iter:  53  16:54:22  -4.49  -2.79  -3984.390130    3      58     
iter:  54  16:56:36  -4.63  -2.40  -3984.369251    3      51     
iter:  55  16:59:05  -3.37  -2.60  -3984.407172    3      78     
iter:  56  17:01:23  -3.90  -2.30  -3984.361500    3      61     
iter:  57  17:03:34  -4.94  -2.77  -3984.366598    3      45     
iter:  58  17:05:49  -3.92  -2.61  -3984.360819    3      53     
iter:  59  17:08:01  -3.94  -3.04  -3984.361923    3      46     
iter:  60  17:10:06  -4.47  -2.96  -3984.361941    2      24     
iter:  61  17:12:26  -4.62  -2.99  -3984.366681    3      64     
iter:  62  17:14:37  -5.12  -2.99  -3984.362478    3      45     
iter:  63  17:16:42  -5.44  -3.91  -3984.363316    2      32     
iter:  64  17:18:49  -5.71  -3.46  -3984.362235    3      36     
iter:  65  17:20:51  -5.94  -3.99  -3984.362401    2      17     
iter:  66  17:22:54  -6.08  -4.04  -3984.362826    2      27     
iter:  67  17:24:51  -6.26  -3.67  -3984.362902    2      12     
iter:  68  17:26:57  -6.19  -3.63  -3984.362357    2      33     
iter:  69  17:28:58  -6.51  -3.97  -3984.362466    2      23     
iter:  70  17:31:03  -6.56  -3.95  -3984.362297    2      23     
iter:  71  17:32:59  -6.39  -4.00  -3984.362133    2      12     
iter:  72  17:35:06  -6.37  -4.26  -3984.363174    2      34     
iter:  73  17:37:05  -6.81  -3.53  -3984.363026    2      17     
iter:  74  17:39:01  -7.04  -3.61  -3984.363097    2      9      
iter:  75  17:41:11  -6.08  -3.58  -3984.361980    3      41     
iter:  76  17:43:21  -6.64  -3.43  -3984.362507    3      37     
iter:  77  17:45:18  -7.06  -4.01  -3984.362454    2      13     
iter:  78  17:47:21  -6.91  -4.28  -3984.362238    2      24     
iter:  79  17:49:22  -7.19  -3.92  -3984.362365    2      22     
iter:  80  17:51:26  -6.94  -4.34  -3984.362796    2      28     
iter:  81  17:53:34  -6.28  -3.73  -3984.362135    2      35     
iter:  82  17:55:36  -6.43  -3.75  -3984.362296    2      25     
iter:  83  17:57:36  -6.95  -4.35  -3984.362394    2      17     
iter:  84  17:59:30  -7.44  -4.92  -3984.362388    2      7      
------------------------------------
Converged After 84 Iterations.

Energy Contributions Relative to Reference Atoms:(reference = -6007572.833626)
-------------------------
Kinetic:       +258.336633
Potential:     -267.793120
External:        +0.000000
XC:            -3968.164061
Entropy (-ST):   -1.019811
Local:           -6.231934
-------------------------
Free Energy:   -3984.872293
Zero Kelvin:   -3984.362388

Fermi Level: -6.85759
Showing all kpts
 Kpt  Band  Eigenvalues  Occupancy
  0    91     -7.24932    0.24512
  0    92     -7.20966    0.24282
  0    93     -7.18160    0.24058
  0    94     -7.10877    0.23124
  0    95     -7.04214    0.21590
  0    96     -7.01971    0.20874
  0    97     -6.99283    0.19863
  0    98     -6.96239    0.18510
  0    99     -6.92341    0.16471
  0   100     -6.92053    0.16308
  0   101     -6.86169    0.12756
  0   102     -6.74817    0.06271
  0   103     -6.69834    0.04226
  0   104     -6.67525    0.03475
  0   105     -6.39407    0.00240
  0   106     -5.99320    0.00004
  0   107     -5.79201    0.00001
  0   108     -5.29848    0.00000
  0   109     -4.94196    0.00000
  0   110     -4.36610    0.00000

  1    91     -7.32447    0.24768
  1    92     -7.27065    0.24605
  1    93     -7.20251    0.24230
  1    94     -7.05714    0.22008
  1    95     -7.00294    0.20263
  1    96     -6.97291    0.19002
  1    97     -6.96318    0.18547
  1    98     -6.94708    0.17747
  1    99     -6.92700    0.16672
  1   100     -6.81502    0.09878
  1   101     -6.79319    0.08609
  1   102     -6.67618    0.03503
  1   103     -6.38433    0.00218
  1   104     -6.09971    0.00013
  1   105     -5.94042    0.00003
  1   106     -5.75866    0.00000
  1   107     -5.42957    0.00000
  1   108     -5.14967    0.00000
  1   109     -4.61289    0.00000
  1   110     -4.38834    0.00000

  2    91     -7.32447    0.24768
  2    92     -7.27065    0.24605
  2    93     -7.20251    0.24230
  2    94     -7.05714    0.22008
  2    95     -7.00294    0.20263
  2    96     -6.97291    0.19002
  2    97     -6.96318    0.18547
  2    98     -6.94708    0.17747
  2    99     -6.92700    0.16672
  2   100     -6.81502    0.09878
  2   101     -6.79319    0.08609
  2   102     -6.67618    0.03503
  2   103     -6.38433    0.00218
  2   104     -6.09971    0.00013
  2   105     -5.94042    0.00003
  2   106     -5.75866    0.00000
  2   107     -5.42957    0.00000
  2   108     -5.14967    0.00000
  2   109     -4.61289    0.00000
  2   110     -4.38834    0.00000

  3    91     -7.24932    0.24512
  3    92     -7.20966    0.24282
  3    93     -7.18160    0.24058
  3    94     -7.10877    0.23124
  3    95     -7.04214    0.21590
  3    96     -7.01971    0.20874
  3    97     -6.99283    0.19863
  3    98     -6.96239    0.18510
  3    99     -6.92341    0.16471
  3   100     -6.92053    0.16308
  3   101     -6.86169    0.12756
  3   102     -6.74817    0.06271
  3   103     -6.69834    0.04226
  3   104     -6.67525    0.03475
  3   105     -6.39407    0.00240
  3   106     -5.99320    0.00004
  3   107     -5.79201    0.00001
  3   108     -5.29848    0.00000
  3   109     -4.94196    0.00000
  3   110     -4.36610    0.00000

  4    91     -7.58185    0.24982
  4    92     -7.52485    0.24968
  4    93     -7.44441    0.24929
  4    94     -7.32929    0.24778
  4    95     -7.22051    0.24354
  4    96     -7.15780    0.23817
  4    97     -7.04978    0.21809
  4    98     -7.02877    0.21177
  4    99     -6.99316    0.19876
  4   100     -6.97207    0.18964
  4   101     -6.94365    0.17570
  4   102     -6.87930    0.13851
  4   103     -6.78429    0.08113
  4   104     -6.66875    0.03285
  4   105     -6.37626    0.00201
  4   106     -6.14020    0.00019
  4   107     -5.88451    0.00001
  4   108     -5.41828    0.00000
  4   109     -5.18778    0.00000
  4   110     -4.93995    0.00000

  5    91     -7.69067    0.24994
  5    92     -7.58385    0.24982
  5    93     -7.43971    0.24926
  5    94     -7.41079    0.24901
  5    95     -7.31486    0.24744
  5    96     -7.25863    0.24555
  5    97     -7.14815    0.23703
  5    98     -7.05125    0.21849
  5    99     -6.98706    0.19623
  5   100     -6.96885    0.18815
  5   101     -6.94829    0.17810
  5   102     -6.90179    0.15218
  5   103     -6.82429    0.10438
  5   104     -6.71163    0.04713
  5   105     -6.11121    0.00014
  5   106     -5.60369    0.00000
  5   107     -5.15568    0.00000
  5   108     -4.47801    0.00000
  5   109     -4.08157    0.00000
  5   110     -3.51551    0.00000

  6    91     -7.69067    0.24994
  6    92     -7.58385    0.24982
  6    93     -7.43971    0.24926
  6    94     -7.41079    0.24901
  6    95     -7.31486    0.24744
  6    96     -7.25863    0.24555
  6    97     -7.14815    0.23703
  6    98     -7.05125    0.21849
  6    99     -6.98706    0.19623
  6   100     -6.96885    0.18815
  6   101     -6.94829    0.17810
  6   102     -6.90179    0.15218
  6   103     -6.82429    0.10438
  6   104     -6.71163    0.04713
  6   105     -6.11121    0.00014
  6   106     -5.60369    0.00000
  6   107     -5.15568    0.00000
  6   108     -4.47801    0.00000
  6   109     -4.08157    0.00000
  6   110     -3.51551    0.00000

  7    91     -7.58185    0.24982
  7    92     -7.52484    0.24968
  7    93     -7.44441    0.24929
  7    94     -7.32929    0.24778
  7    95     -7.22051    0.24354
  7    96     -7.15780    0.23817
  7    97     -7.04978    0.21809
  7    98     -7.02877    0.21177
  7    99     -6.99316    0.19876
  7   100     -6.97207    0.18964
  7   101     -6.94365    0.17570
  7   102     -6.87930    0.13851
  7   103     -6.78429    0.08113
  7   104     -6.66875    0.03285
  7   105     -6.37626    0.00201
  7   106     -6.14020    0.00019
  7   107     -5.88451    0.00001
  7   108     -5.41828    0.00000
  7   109     -5.18778    0.00000
  7   110     -4.93995    0.00000



Dipole Moment: [-3.37660885 -2.20357803 -0.30201139]
Dipole-corrected work function: 5.881360, 7.833829

Forces in eV/Ang:
  0 Pt    0.00005    0.08834   -0.09386
  1 Pt   -0.00005   -0.03468   -0.04864
  2 Pt    0.02697   -0.03745   -0.11504
  3 Pt   -0.02697   -0.03747   -0.11501
  4 Pt   -0.06603    0.04630   -0.27270
  5 Pt    0.06603    0.04628   -0.27273
  6 Pt    0.00001   -0.05986   -0.19685
  7 Pt   -0.00001   -0.08610    0.09742
  8 Pt    0.77219    0.36953    1.61776
  9 Pt   -0.77221    0.36953    1.61777
 10 Pt    0.00000   -1.21904    1.64170
 11 Pt   -0.00001    0.44997   -0.05856
 12 C     0.00000    0.06125   -3.21354
 13 O    -0.00000    0.00576   -3.52744

Positions:
  0 Pt    1.4213    0.8206    6.0000
  1 Pt    4.2639    0.8206    6.0000
  2 Pt    0.0000    3.2823    6.0000
  3 Pt    2.8426    3.2823    6.0000
  4 Pt    0.0000    1.6412    8.3209
  5 Pt    2.8426    1.6412    8.3209
  6 Pt    1.4213    4.1029    8.3209
  7 Pt    4.2639    4.1029    8.3209
  8 Pt    0.0772    0.0370   10.8037
  9 Pt    2.7653    0.0370   10.8037
 10 Pt    1.4213    2.3398   10.8061
 11 Pt    4.2639    2.5067   10.6360
 12 C     1.4213    0.8267   11.8205
 13 O     1.4213    0.8212   14.7892

    .-------------.  
   /|             |  
  / |             |  
 *  |             |  
 |  |             |  
 |  |O            |  
 |  |             |  
 |  |             |  
 |  |C            |  
 |  | Pt     Pt   |  
 Pt |   Pt        |  
 |  |  Pt     Pt  |  
 |Pt|    Pt       |  
 |  |             |  
 | Pt     Pt      |  
 |  |Pt     Pt    |  
 |  |             |  
 |  |             |  
 |  |             |  
 |  |             |  
 |  .-------------.  
 | /             /   
 |/             /    
 *-------------*     

Unit Cell:
           Periodic     X           Y           Z      Points  Spacing
  --------------------------------------------------------------------
  1. axis:    yes    5.685139    0.000000    0.000000    36     0.1579
  2. axis:    yes    0.000000    4.923474    0.000000    32     0.1539
  3. axis:    no     0.000000    0.000000   16.641896   104     0.1600

Pt-setup:
  name   : Platinum
  id     : 5ed695806aff0c961dba1a84acd7f4b2
  Z      : 78
  valence: 16
  core   : 62
  charge : 0.0
  file   : /gpfs/pace1/project/pme/pme1/medford-share/INSTALL/gpaw-data/gpaw-setups-0.9.20000/Pt.PBE.gz
  cutoffs: 1.29(comp), 2.26(filt), 2.26(core), lmax=2
  valence states:
            energy   radius
    6s(1.00)  -5.628   1.307
    5p(6.00) -56.051   1.371
    6p(0.00)  -0.845   1.371
    5d(9.00)  -6.153   1.307
    *s      21.583   1.307
    *d      21.058   1.307

Using partial waves for Pt as LCAO basis

C-setup:
  name   : Carbon
  id     : 4aa54d4b901d75f77cc0ea3eec22967b
  Z      : 6
  valence: 4
  core   : 2
  charge : 0.0
  file   : /gpfs/pace1/project/pme/pme1/medford-share/INSTALL/gpaw-data/gpaw-setups-0.9.20000/C.PBE.gz
  cutoffs: 0.64(comp), 1.14(filt), 1.14(core), lmax=2
  valence states:
            energy   radius
    2s(2.00) -13.751   0.635
    2p(2.00)  -5.284   0.635
    *s      13.461   0.635
    *p      21.927   0.635
    *d       0.000   0.635

Using partial waves for C as LCAO basis

O-setup:
  name   : Oxygen
  id     : 32ecd46bf208036f09c70b0ec9a88b78
  Z      : 8
  valence: 6
  core   : 2
  charge : 0.0
  file   : /gpfs/pace1/project/pme/pme1/medford-share/INSTALL/gpaw-data/gpaw-setups-0.9.20000/O.PBE.gz
  cutoffs: 0.67(comp), 1.17(filt), 0.83(core), lmax=2
  valence states:
            energy   radius
    2s(2.00) -23.961   0.688
    2p(4.00)  -9.029   0.598
    *s       3.251   0.688
    *p      18.182   0.598
    *d       0.000   0.619

Using partial waves for O as LCAO basis

Using the BEEF-vdW Exchange-Correlation Functional.
Spin-Paired Calculation
Total Charge: 0.000000
Fermi Temperature: 0.100000
Wave functions: Uniform real-space grid
Kinetic energy operator: 6*3+1=19 point O(h^6) finite-difference Laplacian
Eigensolver: RMM-DIIS eigensolver
       keep_htpsit: True
       Block size: 10
       DIIS iterations: 3
       Threshold for DIIS: 1.0e-16
       Limit lambda: False
       use_rayleigh: False
       trial_step: 0.1
XC and Coulomb potentials evaluated on a 72*64*208 grid
Interpolation: tri-quintic (5. degree polynomial)
Poisson solver: Jacobi solver with 4 multi-grid levels
    Coarsest grid: 9 x 8 x 26 points
    Warning: Coarse grid has more than 24 points.
             More multi-grid levels recommended.
    Stencil: 6*3+1=19 point O(h^6) finite-difference Laplacian
    Tolerance: 1.000000e-12
    Max iterations: 1000
Dipole correction along z-axis
Reference Energy: -6007572.833626

Total number of cores used: 24
Parallelization over k-points: 8
Domain Decomposition: 1 x 1 x 3
MatrixOperator buffer_size: default value or 
                            see value of nblock in input file
Diagonalizer layout: Serial LAPACK
Orthonormalizer layout: Serial LAPACK

Symmetries present (total): 1

  ( 1  0  0)
  ( 0  1  0)
  ( 0  0  1)

16 k-points: 4 x 4 x 1 Monkhorst-Pack grid
8 k-points in the Irreducible Part of the Brillouin Zone

          k-points in crystal coordinates                weights
   0:     0.12500000   -0.37500000    0.00000000          2/16
   1:     0.12500000   -0.12500000    0.00000000          2/16
   2:     0.12500000    0.12500000    0.00000000          2/16
   3:     0.12500000    0.37500000    0.00000000          2/16
   4:     0.37500000   -0.37500000    0.00000000          2/16
   5:     0.37500000   -0.12500000    0.00000000          2/16
   6:     0.37500000    0.12500000    0.00000000          2/16
   7:     0.37500000    0.37500000    0.00000000          2/16

Mixer Type: Mixer
Linear Mixing Parameter: 0.07
Mixing with 3 Old Densities
Damping of Long Wave Oscillations: 120

Convergence Criteria:
    Total Energy Change: 0.0005 eV / electron
    Integral of Absolute Density Change: 0.0001 electrons
    Integral of Absolute Eigenstate Change: 4e-08 eV^2
Number of Atoms: 14
Number of Atomic Orbitals: 152
Number of Bands in Calculation: 152
Bands to Converge: Occupied States Only
Number of Valence Electrons: 202
                     log10-error:    Total        Iterations:
           Time      WFS    Density  Energy       Fermi  Poisson
iter:   1  18:04:37  +1.91         -3957.813970    35     354    
iter:   2  18:07:51  +1.30  -0.90  -4132.483206    3      178    
iter:   3  18:11:37  +1.52  -0.71  -4027.930238    38     244    
iter:   4  18:15:04  +1.08  -0.98  -4076.091994    33     194    
iter:   5  18:18:50  +0.88  -0.97  -4117.353439    35     250    
iter:   6  18:22:52  +0.49  -0.89  -4205.952301    32     281    
iter:   7  18:27:13  +0.19  -0.68  -4060.740613    32     313    
iter:   8  18:31:49  +0.44  -0.94  -4066.318817    36     349    
iter:   9  18:35:49  +0.39  -0.85  -4038.741925    35     278    
iter:  10  18:40:06  +0.01  -1.02  -4027.021350    37     307    
iter:  11  18:44:19  -0.38  -1.06  -4027.108544    35     307    
iter:  12  18:48:15  -0.36  -1.05  -4017.029535    36     277    
iter:  13  18:52:18  -0.75  -1.21  -4002.477721    37     267    
iter:  14  18:56:42  -0.72  -1.25  -4021.142225    36     320    
iter:  15  19:01:02  -0.95  -1.18  -3994.792005    37     318    
iter:  16  19:05:08  -0.75  -1.39  -4005.580359    4      283    
iter:  17  19:09:22  -0.37  -1.21  -4029.704653    33     303    
iter:  18  19:13:12  -0.88  -1.09  -3993.415364    37     249    
iter:  19  19:16:37  -1.34  -1.44  -3991.793811    4      197    
iter:  20  19:20:57  -1.01  -1.58  -4016.197289    34     315    
iter:  21  19:25:08  -1.47  -1.22  -3989.055802    35     302    
iter:  22  19:28:14  -1.49  -1.55  -3990.735826    3      160    
iter:  23  19:31:45  -1.86  -1.55  -3986.931157    35     216    
iter:  24  19:35:47  -1.78  -1.67  -3994.056890    29     283    
iter:  25  19:39:49  -1.88  -1.46  -3987.783344    35     287    
iter:  26  19:42:42  -1.18  -1.61  -4001.571351    34     133    
iter:  27  19:45:45  -1.49  -1.30  -3987.128058    34     155    
iter:  28  19:49:38  -1.60  -1.66  -3996.144525    3      256    
iter:  29  19:53:31  -1.83  -1.37  -3987.346491    4      265    
iter:  30  19:56:52  -1.11  -1.63  -4004.785720    35     198    
iter:  31  19:59:48  -1.60  -1.27  -3986.676386    33     135    
iter:  32  20:03:52  -1.87  -1.77  -3993.514949    35     290    
iter:  33  20:07:49  -1.90  -1.51  -3986.343427    35     277    
iter:  34  20:11:25  -1.95  -1.73  -3988.931771    3      219    
iter:  35  20:14:48  -2.10  -1.63  -3986.560076    4      199    
iter:  36  20:18:08  -2.77  -1.80  -3986.237670    4      193    
iter:  37  20:22:21  -1.66  -1.82  -4004.665202    34     302    
iter:  38  20:26:25  -1.93  -1.40  -3985.887838    35     290    
iter:  39  20:29:59  -2.56  -1.87  -3985.660994    4      221    
iter:  40  20:33:21  -3.04  -1.97  -3985.580193    3      192    
iter:  41  20:36:16  -1.88  -2.13  -3985.539150    4      134    
iter:  42  20:39:14  -2.45  -2.41  -3985.763478    3      143    
iter:  43  20:41:45  -3.05  -1.95  -3985.904140    3      78     
iter:  44  20:44:48  -2.47  -1.87  -3986.575960    3      154    
iter:  45  20:47:11  -3.04  -1.79  -3986.277577    3      62     
iter:  46  20:49:45  -3.26  -1.84  -3986.372753    3      83     
iter:  47  20:53:44  -1.40  -1.82  -3997.520374    3      274    
iter:  48  20:57:28  -1.20  -1.30  -3999.912871    34     241    
iter:  49  21:01:31  -1.68  -1.44  -3988.224544    35     281    
iter:  50  21:04:40  -0.81  -1.55  -4025.460449    34     165    
iter:  51  21:09:09  -0.26  -1.14  -4017.772767    38     346    
iter:  52  21:13:23  -0.97  -1.35  -3998.172611    36     315    
iter:  53  21:17:09  -1.44  -1.63  -4000.206054    4      245    
iter:  54  21:21:31  -1.08  -1.53  -4005.351708    36     331    
iter:  55  21:25:48  -1.38  -1.39  -3990.771930    36     317    
iter:  56  21:29:30  -2.67  -1.85  -3988.690097    35     241    
iter:  57  21:32:33  -3.10  -1.85  -3989.000029    3      156    
iter:  58  21:36:52  -1.24  -1.87  -4000.243078    36     320    
iter:  59  21:41:01  -1.59  -1.42  -3985.610884    36     304    
iter:  60  21:44:32  -2.58  -2.30  -3985.906120    4      216    
iter:  61  21:48:13  -3.02  -1.99  -3987.358285    3      236    
iter:  62  21:51:47  -2.68  -1.61  -3986.459585    3      223    
iter:  63  21:54:41  -2.88  -1.84  -3985.694692    3      135    
iter:  64  21:57:16  -3.40  -2.16  -3985.747218    3      92     
iter:  65  21:59:37  -3.52  -2.07  -3985.828705    3      55     
iter:  66  22:02:12  -3.26  -1.99  -3985.583477    4      92     
iter:  67  22:04:44  -3.57  -2.53  -3985.873419    3      86     
iter:  68  22:07:21  -3.54  -1.93  -3986.283836    3      95     
iter:  69  22:10:26  -2.85  -1.77  -3985.601890    4      155    
iter:  70  22:13:14  -3.49  -2.27  -3985.869774    3      123    
iter:  71  22:15:41  -3.25  -1.91  -3986.812694    3      73     
iter:  72  22:18:15  -3.72  -1.67  -3986.730773    2      90     
iter:  73  22:20:52  -3.51  -1.68  -3987.353521    3      94     
iter:  74  22:24:06  -2.52  -1.62  -3986.559122    3      181    
iter:  75  22:26:56  -3.14  -1.71  -3986.264279    3      125    
iter:  76  22:30:29  -1.52  -1.78  -3987.524698    3      225    
iter:  77  22:33:59  -2.06  -1.73  -3986.243647    3      210    
iter:  78  22:36:45  -2.67  -1.85  -3985.798842    4      116    
iter:  79  22:39:08  -3.13  -2.09  -3985.871349    3      65     
iter:  80  22:42:16  -3.07  -2.04  -3985.710938    4      166    
iter:  81  22:45:31  -2.09  -2.16  -3986.142119    4      177    
iter:  82  22:47:58  -2.57  -1.89  -3985.662861    3      74     
iter:  83  22:51:11  -2.82  -2.25  -3985.690361    3      179    
iter:  84  22:53:42  -2.79  -2.10  -3985.861154    3      79     
iter:  85  22:57:01  -2.49  -1.98  -3985.701367    3      189    
iter:  86  23:00:15  -3.00  -2.23  -3985.655218    4      177    
iter:  87  23:03:28  -2.76  -2.25  -3985.672195    4      177    
iter:  88  23:06:25  -2.53  -2.21  -3987.721777    4      139    
iter:  89  23:09:01  -2.48  -1.59  -3985.672814    4      93     
iter:  90  23:11:48  -3.17  -2.15  -3985.563821    4      118    
iter:  91  23:14:17  -3.45  -2.88  -3985.601669    3      77     
iter:  92  23:16:50  -3.57  -2.43  -3985.580979    3      82     
iter:  93  23:19:26  -3.61  -2.57  -3985.703510    3      92     
iter:  94  23:21:47  -3.68  -2.16  -3985.832576    2      59     
iter:  95  23:24:43  -3.78  -2.03  -3985.762255    3      138    
iter:  96  23:28:02  -2.79  -2.09  -3986.950327    2      179    
iter:  97  23:31:28  -1.96  -1.76  -3992.209688    4      198    
iter:  98  23:35:01  -2.16  -1.44  -3985.857248    5      217    
iter:  99  23:37:31  -2.54  -2.06  -3985.959502    3      74     
iter: 100  23:40:11  -2.94  -1.85  -3985.855495    3      99     
iter: 101  23:43:12  -2.85  -1.91  -3985.803157    4      145    
iter: 102  23:45:31  -3.44  -2.05  -3985.868873    3      51     
iter: 103  23:48:49  -3.38  -2.01  -3985.657547    3      179    
iter: 104  23:51:18  -3.71  -2.12  -3985.653350    2      75     
iter: 105  23:54:28  -3.46  -2.13  -3985.728493    3      163    
iter: 106  23:56:54  -4.04  -2.13  -3985.695361    3      68     
iter: 107  23:59:34  -4.00  -2.17  -3985.554589    3      93     
iter: 108  00:01:55  -4.52  -3.19  -3985.570967    3      55     
iter: 109  00:04:40  -4.02  -2.64  -3985.782285    3      107    
iter: 110  00:07:29  -4.13  -2.07  -3985.773759    3      117    
iter: 111  00:10:18  -3.89  -2.08  -3985.790443    3      115    
iter: 112  00:13:58  -1.11  -2.06  -4011.213658    34     230    
iter: 113  00:17:33  -1.55  -1.25  -3985.755299    35     221    
iter: 114  00:20:20  -2.76  -1.99  -3985.965484    3      113    
iter: 115  00:24:10  -1.85  -1.85  -3996.483663    4      235    
iter: 116  00:28:19  -1.47  -1.46  -3988.750621    36     261    
iter: 117  00:31:34  -1.62  -1.67  -3988.597165    2      152    
iter: 118  00:35:08  -2.17  -1.75  -3986.055372    4      187    
iter: 119  00:38:46  -1.28  -2.00  -3997.732054    35     193    
iter: 120  00:43:19  -1.29  -1.42  -3997.453233    34     304    
iter: 121  00:47:49  -1.50  -1.43  -3987.107604    33     289    
iter: 122  00:52:21  -1.26  -1.62  -3990.573717    37     291    
iter: 123  00:56:39  -1.57  -1.72  -3987.938066    33     271    
iter: 124  01:00:09  -2.49  -1.77  -3986.994306    3      177    
iter: 125  01:04:58  -0.96  -1.94  -4020.881661    36     327    
iter: 126  01:09:37  -1.34  -1.42  -3990.284552    37     315    
iter: 127  01:13:47  -1.84  -1.57  -3985.643049    4      255    
iter: 128  01:17:40  -2.83  -2.21  -3986.821852    3      218    
iter: 129  01:21:43  -2.30  -1.65  -3986.160707    3      233    
iter: 130  01:25:19  -2.89  -1.98  -3985.628724    4      191    
iter: 131  01:27:47  -3.30  -2.32  -3985.677561    3      56     
iter: 132  01:31:00  -2.56  -2.22  -3987.270549    3      127    
iter: 133  01:33:48  -2.49  -1.74  -3985.855907    2      92     
iter: 134  01:36:47  -3.52  -1.97  -3985.612476    4      119    
iter: 135  01:39:04  -3.84  -2.47  -3985.620780    3      40     
iter: 136  01:41:51  -2.44  -2.43  -3987.272106    3      87     
iter: 137  01:44:37  -3.08  -1.74  -3985.734952    4      80     
iter: 138  01:47:32  -3.47  -2.14  -3985.594765    4      90     
iter: 139  01:50:15  -3.88  -2.54  -3985.598579    3      74     
iter: 140  01:53:54  -2.83  -2.53  -3986.176757    4      167    
iter: 141  01:56:48  -3.14  -1.89  -3986.512394    3      92     
iter: 142  02:00:29  -2.68  -1.82  -3985.582108    4      173    
iter: 143  02:03:32  -3.36  -2.64  -3985.605603    3      104    
iter: 144  02:06:35  -3.56  -2.37  -3985.660417    2      104    
iter: 145  02:09:21  -2.56  -2.20  -3986.827161    2      81     
iter: 146  02:12:13  -2.78  -1.79  -3985.608709    3      105    
iter: 147  02:14:54  -4.16  -2.43  -3985.576602    3      65     
