
     Program PWSCF v.5.4.0 starts on 22Sep2016 at 13:21:24 

     This program is part of the open-source Quantum ESPRESSO suite
     for quantum simulation of materials; please cite
         "P. Giannozzi et al., J. Phys.:Condens. Matter 21 395502 (2009);
          URL http://www.quantum-espresso.org", 
     in publications or presentations arising from this work. More details at
     http://www.quantum-espresso.org/quote

     Parallel version (MPI & OpenMP), running on      24 processor cores
     Number of MPI processes:                24
     Threads/MPI process:                     1
     K-points division:     npool     =       4
     R & G space division:  proc/nbgrp/npool/nimage =       6
     Reading input from aiida.in
Warning: card &IONS ignored
Warning: card / ignored
Warning: card &CELL ignored
Warning: card / ignored

     Current dimensions of program PWSCF are:
     Max number of different atomic species (ntypx) = 10
     Max number of k-points (npk) =  40000
     Max angular momentum in pseudopotentials (lmaxx) =  3

     Subspace diagonalization in iterative solution of the eigenvalue problem:
     a serial algorithm will be used

 
     Parallelization info
     --------------------
     sticks:   dense  smooth     PW     G-vecs:    dense   smooth      PW
     Min         170      85     27                 3555     1269     234
     Max         172      86     28                 3556     1278     237
     Sum        1027     511    163                21331     7631    1411
 


     bravais-lattice index     =            0
     lattice parameter (alat)  =       6.0700  a.u.
     unit-cell volume          =     158.1418 (a.u.)^3
     number of atoms/cell      =            2
     number of atomic types    =            2
     number of electrons       =        16.00
     number of Kohn-Sham states=           12
     kinetic-energy cutoff     =      50.0000  Ry
     charge density cutoff     =     400.0000  Ry
     convergence threshold     =      4.0E-11
     mixing beta               =       0.7000
     number of iterations used =            8  plain     mixing
     Exchange-correlation      = SLA  PW   PBE  PBE ( 1  4  3  4 0 0)

     celldm(1)=   6.069979  celldm(2)=   0.000000  celldm(3)=   0.000000
     celldm(4)=   0.000000  celldm(5)=   0.000000  celldm(6)=   0.000000

     crystal axes: (cart. coord. in units of alat)
               a(1) = (   0.000000   0.707107   0.707107 )  
               a(2) = (   0.707107   0.000000   0.707107 )  
               a(3) = (   0.707107   0.707107   0.000000 )  

     reciprocal axes: (cart. coord. in units 2 pi/alat)
               b(1) = ( -0.707107  0.707107  0.707107 )  
               b(2) = (  0.707107 -0.707107  0.707107 )  
               b(3) = (  0.707107  0.707107 -0.707107 )  


     PseudoPot. # 1 for F  read from file:
     ./pseudo/f_pbe_v1.4.uspp.F.UPF
     MD5 check sum: 4c38b6a325caf53ec0e86aed9459de46
     Pseudo is Ultrasoft, Zval =  7.0
     Generated by new atomic code, or converted to UPF format
     Using radial grid of  799 points,  4 beta functions with: 
                l(1) =   0
                l(2) =   0
                l(3) =   1
                l(4) =   1
     Q(r) pseudized with  8 coefficients,  rinner =    0.950   0.950   0.950


     PseudoPot. # 2 for Na read from file:
     ./pseudo/Na_pbe_v1.uspp.F.UPF
     MD5 check sum: 76a99c7e9422403d3e93cbc85ab7bccb
     Pseudo is Ultrasoft, Zval =  9.0
     Generated by new atomic code, or converted to UPF format
     Using radial grid of  819 points,  5 beta functions with: 
                l(1) =   0
                l(2) =   0
                l(3) =   1
                l(4) =   1
                l(5) =   2
     Q(r) pseudized with  8 coefficients,  rinner =    1.250   1.250   1.250
                                                       1.250   1.250

     atomic species   valence    mass     pseudopotential
        F              7.00    18.99840     F ( 1.00)
        Na             9.00    22.98977     Na( 1.00)

     48 Sym. Ops., with inversion, found


                                    s                        frac. trans.

      isym =  1     identity                                     

 cryst.   s( 1) = (     1          0          0      )
                  (     0          1          0      )
                  (     0          0          1      )

 cart.    s( 1) = (  1.0000000  0.0000000  0.0000000 )
                  (  0.0000000  1.0000000  0.0000000 )
                  (  0.0000000  0.0000000  1.0000000 )


      isym =  2     180 deg rotation - cart. axis [0,0,1]        

 cryst.   s( 2) = (     0          1         -1      )
                  (     1          0         -1      )
                  (     0          0         -1      )

 cart.    s( 2) = ( -1.0000000  0.0000000  0.0000000 )
                  (  0.0000000 -1.0000000  0.0000000 )
                  (  0.0000000  0.0000000  1.0000000 )


      isym =  3     180 deg rotation - cart. axis [0,1,0]        

 cryst.   s( 3) = (     0         -1          1      )
                  (     0         -1          0      )
                  (     1         -1          0      )

 cart.    s( 3) = ( -1.0000000  0.0000000  0.0000000 )
                  (  0.0000000  1.0000000  0.0000000 )
                  (  0.0000000  0.0000000 -1.0000000 )


      isym =  4     180 deg rotation - cart. axis [1,0,0]        

 cryst.   s( 4) = (    -1          0          0      )
                  (    -1          0          1      )
                  (    -1          1          0      )

 cart.    s( 4) = (  1.0000000  0.0000000  0.0000000 )
                  (  0.0000000 -1.0000000  0.0000000 )
                  (  0.0000000  0.0000000 -1.0000000 )


      isym =  5     180 deg rotation - cart. axis [1,1,0]        

 cryst.   s( 5) = (    -1          0          1      )
                  (     0         -1          1      )
                  (     0          0          1      )

 cart.    s( 5) = (  0.0000000  1.0000000  0.0000000 )
                  (  1.0000000  0.0000000  0.0000000 )
                  (  0.0000000  0.0000000 -1.0000000 )


      isym =  6     180 deg rotation - cart. axis [1,-1,0]       

 cryst.   s( 6) = (     0         -1          0      )
                  (    -1          0          0      )
                  (     0          0         -1      )

 cart.    s( 6) = (  0.0000000 -1.0000000  0.0000000 )
                  ( -1.0000000  0.0000000  0.0000000 )
                  (  0.0000000  0.0000000 -1.0000000 )


      isym =  7      90 deg rotation - cart. axis [0,0,-1]       

 cryst.   s( 7) = (     0          1          0      )
                  (     0          1         -1      )
                  (    -1          1          0      )

 cart.    s( 7) = (  0.0000000  1.0000000  0.0000000 )
                  ( -1.0000000  0.0000000  0.0000000 )
                  (  0.0000000  0.0000000  1.0000000 )


      isym =  8      90 deg rotation - cart. axis [0,0,1]        

 cryst.   s( 8) = (     1          0         -1      )
                  (     1          0          0      )
                  (     1         -1          0      )

 cart.    s( 8) = (  0.0000000 -1.0000000  0.0000000 )
                  (  1.0000000  0.0000000  0.0000000 )
                  (  0.0000000  0.0000000  1.0000000 )


      isym =  9     180 deg rotation - cart. axis [1,0,1]        

 cryst.   s( 9) = (    -1          1          0      )
                  (     0          1          0      )
                  (     0          1         -1      )

 cart.    s( 9) = (  0.0000000  0.0000000  1.0000000 )
                  (  0.0000000 -1.0000000  0.0000000 )
                  (  1.0000000  0.0000000  0.0000000 )


      isym = 10     180 deg rotation - cart. axis [-1,0,1]       

 cryst.   s(10) = (     0          0         -1      )
                  (     0         -1          0      )
                  (    -1          0          0      )

 cart.    s(10) = (  0.0000000  0.0000000 -1.0000000 )
                  (  0.0000000 -1.0000000  0.0000000 )
                  ( -1.0000000  0.0000000  0.0000000 )


      isym = 11      90 deg rotation - cart. axis [0,1,0]        

 cryst.   s(11) = (     0          0          1      )
                  (    -1          0          1      )
                  (     0         -1          1      )

 cart.    s(11) = (  0.0000000  0.0000000  1.0000000 )
                  (  0.0000000  1.0000000  0.0000000 )
                  ( -1.0000000  0.0000000  0.0000000 )


      isym = 12      90 deg rotation - cart. axis [0,-1,0]       

 cryst.   s(12) = (     1         -1          0      )
                  (     1          0         -1      )
                  (     1          0          0      )

 cart.    s(12) = (  0.0000000  0.0000000 -1.0000000 )
                  (  0.0000000  1.0000000  0.0000000 )
                  (  1.0000000  0.0000000  0.0000000 )


      isym = 13     180 deg rotation - cart. axis [0,1,1]        

 cryst.   s(13) = (     1          0          0      )
                  (     1         -1          0      )
                  (     1          0         -1      )

 cart.    s(13) = ( -1.0000000  0.0000000  0.0000000 )
                  (  0.0000000  0.0000000  1.0000000 )
                  (  0.0000000  1.0000000  0.0000000 )


      isym = 14     180 deg rotation - cart. axis [0,1,-1]       

 cryst.   s(14) = (    -1          0          0      )
                  (     0          0         -1      )
                  (     0         -1          0      )

 cart.    s(14) = ( -1.0000000  0.0000000  0.0000000 )
                  (  0.0000000  0.0000000 -1.0000000 )
                  (  0.0000000 -1.0000000  0.0000000 )


      isym = 15      90 deg rotation - cart. axis [-1,0,0]       

 cryst.   s(15) = (     0         -1          1      )
                  (     0          0          1      )
                  (    -1          0          1      )

 cart.    s(15) = (  1.0000000  0.0000000  0.0000000 )
                  (  0.0000000  0.0000000  1.0000000 )
                  (  0.0000000 -1.0000000  0.0000000 )


      isym = 16      90 deg rotation - cart. axis [1,0,0]        

 cryst.   s(16) = (     0          1         -1      )
                  (    -1          1          0      )
                  (     0          1          0      )

 cart.    s(16) = (  1.0000000  0.0000000  0.0000000 )
                  (  0.0000000  0.0000000 -1.0000000 )
                  (  0.0000000  1.0000000  0.0000000 )


      isym = 17     120 deg rotation - cart. axis [-1,-1,-1]     

 cryst.   s(17) = (     0          0          1      )
                  (     1          0          0      )
                  (     0          1          0      )

 cart.    s(17) = (  0.0000000  1.0000000  0.0000000 )
                  (  0.0000000  0.0000000  1.0000000 )
                  (  1.0000000  0.0000000  0.0000000 )


      isym = 18     120 deg rotation - cart. axis [-1,1,1]       

 cryst.   s(18) = (     1         -1          0      )
                  (     0         -1          1      )
                  (     0         -1          0      )

 cart.    s(18) = (  0.0000000 -1.0000000  0.0000000 )
                  (  0.0000000  0.0000000  1.0000000 )
                  ( -1.0000000  0.0000000  0.0000000 )


      isym = 19     120 deg rotation - cart. axis [1,1,-1]       

 cryst.   s(19) = (    -1          1          0      )
                  (    -1          0          0      )
                  (    -1          0          1      )

 cart.    s(19) = (  0.0000000  1.0000000  0.0000000 )
                  (  0.0000000  0.0000000 -1.0000000 )
                  ( -1.0000000  0.0000000  0.0000000 )


      isym = 20     120 deg rotation - cart. axis [1,-1,1]       

 cryst.   s(20) = (     0          0         -1      )
                  (     0          1         -1      )
                  (     1          0         -1      )

 cart.    s(20) = (  0.0000000 -1.0000000  0.0000000 )
                  (  0.0000000  0.0000000 -1.0000000 )
                  (  1.0000000  0.0000000  0.0000000 )


      isym = 21     120 deg rotation - cart. axis [1,1,1]        

 cryst.   s(21) = (     0          1          0      )
                  (     0          0          1      )
                  (     1          0          0      )

 cart.    s(21) = (  0.0000000  0.0000000  1.0000000 )
                  (  1.0000000  0.0000000  0.0000000 )
                  (  0.0000000  1.0000000  0.0000000 )


      isym = 22     120 deg rotation - cart. axis [-1,1,-1]      

 cryst.   s(22) = (    -1          0          1      )
                  (    -1          1          0      )
                  (    -1          0          0      )

 cart.    s(22) = (  0.0000000  0.0000000  1.0000000 )
                  ( -1.0000000  0.0000000  0.0000000 )
                  (  0.0000000 -1.0000000  0.0000000 )


      isym = 23     120 deg rotation - cart. axis [1,-1,-1]      

 cryst.   s(23) = (     1          0         -1      )
                  (     0          0         -1      )
                  (     0          1         -1      )

 cart.    s(23) = (  0.0000000  0.0000000 -1.0000000 )
                  ( -1.0000000  0.0000000  0.0000000 )
                  (  0.0000000  1.0000000  0.0000000 )


      isym = 24     120 deg rotation - cart. axis [-1,-1,1]      

 cryst.   s(24) = (     0         -1          0      )
                  (     1         -1          0      )
                  (     0         -1          1      )

 cart.    s(24) = (  0.0000000  0.0000000 -1.0000000 )
                  (  1.0000000  0.0000000  0.0000000 )
                  (  0.0000000 -1.0000000  0.0000000 )


      isym = 25     inversion                                    

 cryst.   s(25) = (    -1          0          0      )
                  (     0         -1          0      )
                  (     0          0         -1      )

 cart.    s(25) = ( -1.0000000  0.0000000  0.0000000 )
                  (  0.0000000 -1.0000000  0.0000000 )
                  (  0.0000000  0.0000000 -1.0000000 )


      isym = 26     inv. 180 deg rotation - cart. axis [0,0,1]   

 cryst.   s(26) = (     0         -1          1      )
                  (    -1          0          1      )
                  (     0          0          1      )

 cart.    s(26) = (  1.0000000  0.0000000  0.0000000 )
                  (  0.0000000  1.0000000  0.0000000 )
                  (  0.0000000  0.0000000 -1.0000000 )


      isym = 27     inv. 180 deg rotation - cart. axis [0,1,0]   

 cryst.   s(27) = (     0          1         -1      )
                  (     0          1          0      )
                  (    -1          1          0      )

 cart.    s(27) = (  1.0000000  0.0000000  0.0000000 )
                  (  0.0000000 -1.0000000  0.0000000 )
                  (  0.0000000  0.0000000  1.0000000 )


      isym = 28     inv. 180 deg rotation - cart. axis [1,0,0]   

 cryst.   s(28) = (     1          0          0      )
                  (     1          0         -1      )
                  (     1         -1          0      )

 cart.    s(28) = ( -1.0000000  0.0000000  0.0000000 )
                  (  0.0000000  1.0000000  0.0000000 )
                  (  0.0000000  0.0000000  1.0000000 )


      isym = 29     inv. 180 deg rotation - cart. axis [1,1,0]   

 cryst.   s(29) = (     1          0         -1      )
                  (     0          1         -1      )
                  (     0          0         -1      )

 cart.    s(29) = (  0.0000000 -1.0000000  0.0000000 )
                  ( -1.0000000  0.0000000  0.0000000 )
                  (  0.0000000  0.0000000  1.0000000 )


      isym = 30     inv. 180 deg rotation - cart. axis [1,-1,0]  

 cryst.   s(30) = (     0          1          0      )
                  (     1          0          0      )
                  (     0          0          1      )

 cart.    s(30) = (  0.0000000  1.0000000  0.0000000 )
                  (  1.0000000  0.0000000  0.0000000 )
                  (  0.0000000  0.0000000  1.0000000 )


      isym = 31     inv.  90 deg rotation - cart. axis [0,0,-1]  

 cryst.   s(31) = (     0         -1          0      )
                  (     0         -1          1      )
                  (     1         -1          0      )

 cart.    s(31) = (  0.0000000 -1.0000000  0.0000000 )
                  (  1.0000000  0.0000000  0.0000000 )
                  (  0.0000000  0.0000000 -1.0000000 )


      isym = 32     inv.  90 deg rotation - cart. axis [0,0,1]   

 cryst.   s(32) = (    -1          0          1      )
                  (    -1          0          0      )
                  (    -1          1          0      )

 cart.    s(32) = (  0.0000000  1.0000000  0.0000000 )
                  ( -1.0000000  0.0000000  0.0000000 )
                  (  0.0000000  0.0000000 -1.0000000 )


      isym = 33     inv. 180 deg rotation - cart. axis [1,0,1]   

 cryst.   s(33) = (     1         -1          0      )
                  (     0         -1          0      )
                  (     0         -1          1      )

 cart.    s(33) = (  0.0000000  0.0000000 -1.0000000 )
                  (  0.0000000  1.0000000  0.0000000 )
                  ( -1.0000000  0.0000000  0.0000000 )


      isym = 34     inv. 180 deg rotation - cart. axis [-1,0,1]  

 cryst.   s(34) = (     0          0          1      )
                  (     0          1          0      )
                  (     1          0          0      )

 cart.    s(34) = (  0.0000000  0.0000000  1.0000000 )
                  (  0.0000000  1.0000000  0.0000000 )
                  (  1.0000000  0.0000000  0.0000000 )


      isym = 35     inv.  90 deg rotation - cart. axis [0,1,0]   

 cryst.   s(35) = (     0          0         -1      )
                  (     1          0         -1      )
                  (     0          1         -1      )

 cart.    s(35) = (  0.0000000  0.0000000 -1.0000000 )
                  (  0.0000000 -1.0000000  0.0000000 )
                  (  1.0000000  0.0000000  0.0000000 )


      isym = 36     inv.  90 deg rotation - cart. axis [0,-1,0]  

 cryst.   s(36) = (    -1          1          0      )
                  (    -1          0          1      )
                  (    -1          0          0      )

 cart.    s(36) = (  0.0000000  0.0000000  1.0000000 )
                  (  0.0000000 -1.0000000  0.0000000 )
                  ( -1.0000000  0.0000000  0.0000000 )


      isym = 37     inv. 180 deg rotation - cart. axis [0,1,1]   

 cryst.   s(37) = (    -1          0          0      )
                  (    -1          1          0      )
                  (    -1          0          1      )

 cart.    s(37) = (  1.0000000  0.0000000  0.0000000 )
                  (  0.0000000  0.0000000 -1.0000000 )
                  (  0.0000000 -1.0000000  0.0000000 )


      isym = 38     inv. 180 deg rotation - cart. axis [0,1,-1]  

 cryst.   s(38) = (     1          0          0      )
                  (     0          0          1      )
                  (     0          1          0      )

 cart.    s(38) = (  1.0000000  0.0000000  0.0000000 )
                  (  0.0000000  0.0000000  1.0000000 )
                  (  0.0000000  1.0000000  0.0000000 )


      isym = 39     inv.  90 deg rotation - cart. axis [-1,0,0]  

 cryst.   s(39) = (     0          1         -1      )
                  (     0          0         -1      )
                  (     1          0         -1      )

 cart.    s(39) = ( -1.0000000  0.0000000  0.0000000 )
                  (  0.0000000  0.0000000 -1.0000000 )
                  (  0.0000000  1.0000000  0.0000000 )


      isym = 40     inv.  90 deg rotation - cart. axis [1,0,0]   

 cryst.   s(40) = (     0         -1          1      )
                  (     1         -1          0      )
                  (     0         -1          0      )

 cart.    s(40) = ( -1.0000000  0.0000000  0.0000000 )
                  (  0.0000000  0.0000000  1.0000000 )
                  (  0.0000000 -1.0000000  0.0000000 )


      isym = 41     inv. 120 deg rotation - cart. axis [-1,-1,-1]

 cryst.   s(41) = (     0          0         -1      )
                  (    -1          0          0      )
                  (     0         -1          0      )

 cart.    s(41) = (  0.0000000 -1.0000000  0.0000000 )
                  (  0.0000000  0.0000000 -1.0000000 )
                  ( -1.0000000  0.0000000  0.0000000 )


      isym = 42     inv. 120 deg rotation - cart. axis [-1,1,1]  

 cryst.   s(42) = (    -1          1          0      )
                  (     0          1         -1      )
                  (     0          1          0      )

 cart.    s(42) = (  0.0000000  1.0000000  0.0000000 )
                  (  0.0000000  0.0000000 -1.0000000 )
                  (  1.0000000  0.0000000  0.0000000 )


      isym = 43     inv. 120 deg rotation - cart. axis [1,1,-1]  

 cryst.   s(43) = (     1         -1          0      )
                  (     1          0          0      )
                  (     1          0         -1      )

 cart.    s(43) = (  0.0000000 -1.0000000  0.0000000 )
                  (  0.0000000  0.0000000  1.0000000 )
                  (  1.0000000  0.0000000  0.0000000 )


      isym = 44     inv. 120 deg rotation - cart. axis [1,-1,1]  

 cryst.   s(44) = (     0          0          1      )
                  (     0         -1          1      )
                  (    -1          0          1      )

 cart.    s(44) = (  0.0000000  1.0000000  0.0000000 )
                  (  0.0000000  0.0000000  1.0000000 )
                  ( -1.0000000  0.0000000  0.0000000 )


      isym = 45     inv. 120 deg rotation - cart. axis [1,1,1]   

 cryst.   s(45) = (     0         -1          0      )
                  (     0          0         -1      )
                  (    -1          0          0      )

 cart.    s(45) = (  0.0000000  0.0000000 -1.0000000 )
                  ( -1.0000000  0.0000000  0.0000000 )
                  (  0.0000000 -1.0000000  0.0000000 )


      isym = 46     inv. 120 deg rotation - cart. axis [-1,1,-1] 

 cryst.   s(46) = (     1          0         -1      )
                  (     1         -1          0      )
                  (     1          0          0      )

 cart.    s(46) = (  0.0000000  0.0000000 -1.0000000 )
                  (  1.0000000  0.0000000  0.0000000 )
                  (  0.0000000  1.0000000  0.0000000 )


      isym = 47     inv. 120 deg rotation - cart. axis [1,-1,-1] 

 cryst.   s(47) = (    -1          0          1      )
                  (     0          0          1      )
                  (     0         -1          1      )

 cart.    s(47) = (  0.0000000  0.0000000  1.0000000 )
                  (  1.0000000  0.0000000  0.0000000 )
                  (  0.0000000 -1.0000000  0.0000000 )


      isym = 48     inv. 120 deg rotation - cart. axis [-1,-1,1] 

 cryst.   s(48) = (     0          1          0      )
                  (    -1          1          0      )
                  (     0          1         -1      )

 cart.    s(48) = (  0.0000000  0.0000000  1.0000000 )
                  ( -1.0000000  0.0000000  0.0000000 )
                  (  0.0000000  1.0000000  0.0000000 )


   Cartesian axes

     site n.     atom                  positions (alat units)
         1           F   tau(   1) = (   0.7071068   0.7071068   0.7071068  )
         2           Na  tau(   2) = (   1.4142136   0.7071068   0.7071068  )

   Crystallographic axes

     site n.     atom                  positions (cryst. coord.)
         1           F   tau(   1) = (  0.5000000  0.5000000  0.5000000  )
         2           Na  tau(   2) = (  0.0000000  1.0000000  1.0000000  )

     number of k points=    72  Marzari-Vanderbilt smearing, width (Ry)=  0.0200
                       cart. coord. in units 2pi/alat
        k(    1) = (   0.0000000   0.0000000   0.0000000), wk =   0.0011574
        k(    2) = (   0.0589256   0.0589256  -0.0589256), wk =   0.0092593
        k(    3) = (   0.1178511   0.1178511  -0.1178511), wk =   0.0092593
        k(    4) = (   0.1767767   0.1767767  -0.1767767), wk =   0.0092593
        k(    5) = (   0.2357023   0.2357023  -0.2357023), wk =   0.0092593
        k(    6) = (   0.2946278   0.2946278  -0.2946278), wk =   0.0092593
        k(    7) = (  -0.3535534  -0.3535534   0.3535534), wk =   0.0046296
        k(    8) = (   0.1178511   0.0000000   0.0000000), wk =   0.0069444
        k(    9) = (   0.1767767   0.0589256  -0.0589256), wk =   0.0277778
        k(   10) = (   0.2357023   0.1178511  -0.1178511), wk =   0.0277778
        k(   11) = (   0.2946278   0.1767767  -0.1767767), wk =   0.0277778
        k(   12) = (   0.3535534   0.2357023  -0.2357023), wk =   0.0277778
        k(   13) = (  -0.2946278  -0.4124790   0.4124790), wk =   0.0277778
        k(   14) = (  -0.2357023  -0.3535534   0.3535534), wk =   0.0277778
        k(   15) = (  -0.1767767  -0.2946278   0.2946278), wk =   0.0277778
        k(   16) = (  -0.1178511  -0.2357023   0.2357023), wk =   0.0277778
        k(   17) = (  -0.0589256  -0.1767767   0.1767767), wk =   0.0277778
        k(   18) = (  -0.0000000  -0.1178511   0.1178511), wk =   0.0138889
        k(   19) = (   0.2357023   0.0000000   0.0000000), wk =   0.0069444
        k(   20) = (   0.2946278   0.0589256  -0.0589256), wk =   0.0277778
        k(   21) = (   0.3535534   0.1178511  -0.1178511), wk =   0.0277778
        k(   22) = (   0.4124790   0.1767767  -0.1767767), wk =   0.0277778
        k(   23) = (  -0.2357023  -0.4714045   0.4714045), wk =   0.0277778
        k(   24) = (  -0.1767767  -0.4124790   0.4124790), wk =   0.0277778
        k(   25) = (  -0.1178511  -0.3535534   0.3535534), wk =   0.0277778
        k(   26) = (  -0.0589256  -0.2946278   0.2946278), wk =   0.0277778
        k(   27) = (  -0.0000000  -0.2357023   0.2357023), wk =   0.0138889
        k(   28) = (   0.3535534   0.0000000   0.0000000), wk =   0.0069444
        k(   29) = (   0.4124790   0.0589256  -0.0589256), wk =   0.0277778
        k(   30) = (   0.4714045   0.1178511  -0.1178511), wk =   0.0277778
        k(   31) = (  -0.1767767  -0.5303301   0.5303301), wk =   0.0277778
        k(   32) = (  -0.1178511  -0.4714045   0.4714045), wk =   0.0277778
        k(   33) = (  -0.0589256  -0.4124790   0.4124790), wk =   0.0277778
        k(   34) = (   0.0000000  -0.3535534   0.3535534), wk =   0.0138889
        k(   35) = (   0.4714045   0.0000000   0.0000000), wk =   0.0069444
        k(   36) = (   0.5303301   0.0589256  -0.0589256), wk =   0.0277778
        k(   37) = (  -0.1178511  -0.5892557   0.5892557), wk =   0.0277778
        k(   38) = (  -0.0589256  -0.5303301   0.5303301), wk =   0.0277778
        k(   39) = (  -0.0000000  -0.4714045   0.4714045), wk =   0.0138889
        k(   40) = (   0.5892557   0.0000000   0.0000000), wk =   0.0069444
        k(   41) = (  -0.0589256  -0.6481812   0.6481812), wk =   0.0277778
        k(   42) = (  -0.0000000  -0.5892557   0.5892557), wk =   0.0138889
        k(   43) = (  -0.7071068   0.0000000   0.0000000), wk =   0.0034722
        k(   44) = (   0.2357023   0.1178511  -0.0000000), wk =   0.0277778
        k(   45) = (   0.2946278   0.1767767  -0.0589256), wk =   0.0555556
        k(   46) = (   0.3535534   0.2357023  -0.1178511), wk =   0.0555556
        k(   47) = (  -0.2946278  -0.4124790   0.5303301), wk =   0.0555556
        k(   48) = (  -0.2357023  -0.3535534   0.4714045), wk =   0.0277778
        k(   49) = (   0.3535534   0.1178511   0.0000000), wk =   0.0277778
        k(   50) = (   0.4124790   0.1767767  -0.0589256), wk =   0.0555556
        k(   51) = (  -0.2357023  -0.4714045   0.5892557), wk =   0.0555556
        k(   52) = (  -0.1767767  -0.4124790   0.5303301), wk =   0.0555556
        k(   53) = (  -0.1178511  -0.3535534   0.4714045), wk =   0.0555556
        k(   54) = (  -0.0589256  -0.2946278   0.4124790), wk =   0.0555556
        k(   55) = (  -0.0000000  -0.2357023   0.3535534), wk =   0.0277778
        k(   56) = (   0.4714045   0.1178511   0.0000000), wk =   0.0277778
        k(   57) = (  -0.1767767  -0.5303301   0.6481812), wk =   0.0555556
        k(   58) = (  -0.1178511  -0.4714045   0.5892557), wk =   0.0555556
        k(   59) = (  -0.0589256  -0.4124790   0.5303301), wk =   0.0555556
        k(   60) = (  -0.0000000  -0.3535534   0.4714045), wk =   0.0277778
        k(   61) = (  -0.1178511  -0.5892557   0.7071068), wk =   0.0277778
        k(   62) = (  -0.0589256  -0.5303301   0.6481812), wk =   0.0555556
        k(   63) = (  -0.0000000  -0.4714045   0.5892557), wk =   0.0277778
        k(   64) = (  -0.7071068   0.1178511   0.0000000), wk =   0.0138889
        k(   65) = (  -0.2357023  -0.4714045   0.7071068), wk =   0.0277778
        k(   66) = (  -0.1767767  -0.4124790   0.6481812), wk =   0.0555556
        k(   67) = (  -0.1178511  -0.3535534   0.5892557), wk =   0.0277778
        k(   68) = (  -0.1178511  -0.4714045   0.7071068), wk =   0.0277778
        k(   69) = (  -0.0589256  -0.4124790   0.6481812), wk =   0.0555556
        k(   70) = (   0.0000000  -0.3535534   0.5892557), wk =   0.0277778
        k(   71) = (  -0.7071068   0.2357023   0.0000000), wk =   0.0138889
        k(   72) = (  -0.7071068   0.3535534   0.0000000), wk =   0.0069444

                       cryst. coord.
        k(    1) = (   0.0000000   0.0000000   0.0000000), wk =   0.0011574
        k(    2) = (   0.0000000   0.0000000   0.0833333), wk =   0.0092593
        k(    3) = (   0.0000000   0.0000000   0.1666667), wk =   0.0092593
        k(    4) = (   0.0000000   0.0000000   0.2500000), wk =   0.0092593
        k(    5) = (   0.0000000   0.0000000   0.3333333), wk =   0.0092593
        k(    6) = (   0.0000000   0.0000000   0.4166667), wk =   0.0092593
        k(    7) = (   0.0000000   0.0000000  -0.5000000), wk =   0.0046296
        k(    8) = (   0.0000000   0.0833333   0.0833333), wk =   0.0069444
        k(    9) = (   0.0000000   0.0833333   0.1666667), wk =   0.0277778
        k(   10) = (   0.0000000   0.0833333   0.2500000), wk =   0.0277778
        k(   11) = (   0.0000000   0.0833333   0.3333333), wk =   0.0277778
        k(   12) = (   0.0000000   0.0833333   0.4166667), wk =   0.0277778
        k(   13) = (   0.0000000   0.0833333  -0.5000000), wk =   0.0277778
        k(   14) = (   0.0000000   0.0833333  -0.4166667), wk =   0.0277778
        k(   15) = (   0.0000000   0.0833333  -0.3333333), wk =   0.0277778
        k(   16) = (   0.0000000   0.0833333  -0.2500000), wk =   0.0277778
        k(   17) = (   0.0000000   0.0833333  -0.1666667), wk =   0.0277778
        k(   18) = (   0.0000000   0.0833333  -0.0833333), wk =   0.0138889
        k(   19) = (   0.0000000   0.1666667   0.1666667), wk =   0.0069444
        k(   20) = (   0.0000000   0.1666667   0.2500000), wk =   0.0277778
        k(   21) = (   0.0000000   0.1666667   0.3333333), wk =   0.0277778
        k(   22) = (   0.0000000   0.1666667   0.4166667), wk =   0.0277778
        k(   23) = (   0.0000000   0.1666667  -0.5000000), wk =   0.0277778
        k(   24) = (   0.0000000   0.1666667  -0.4166667), wk =   0.0277778
        k(   25) = (   0.0000000   0.1666667  -0.3333333), wk =   0.0277778
        k(   26) = (   0.0000000   0.1666667  -0.2500000), wk =   0.0277778
        k(   27) = (   0.0000000   0.1666667  -0.1666667), wk =   0.0138889
        k(   28) = (   0.0000000   0.2500000   0.2500000), wk =   0.0069444
        k(   29) = (   0.0000000   0.2500000   0.3333333), wk =   0.0277778
        k(   30) = (   0.0000000   0.2500000   0.4166667), wk =   0.0277778
        k(   31) = (   0.0000000   0.2500000  -0.5000000), wk =   0.0277778
        k(   32) = (   0.0000000   0.2500000  -0.4166667), wk =   0.0277778
        k(   33) = (   0.0000000   0.2500000  -0.3333333), wk =   0.0277778
        k(   34) = (   0.0000000   0.2500000  -0.2500000), wk =   0.0138889
        k(   35) = (   0.0000000   0.3333333   0.3333333), wk =   0.0069444
        k(   36) = (   0.0000000   0.3333333   0.4166667), wk =   0.0277778
        k(   37) = (   0.0000000   0.3333333  -0.5000000), wk =   0.0277778
        k(   38) = (   0.0000000   0.3333333  -0.4166667), wk =   0.0277778
        k(   39) = (   0.0000000   0.3333333  -0.3333333), wk =   0.0138889
        k(   40) = (   0.0000000   0.4166667   0.4166667), wk =   0.0069444
        k(   41) = (   0.0000000   0.4166667  -0.5000000), wk =   0.0277778
        k(   42) = (   0.0000000   0.4166667  -0.4166667), wk =   0.0138889
        k(   43) = (   0.0000000  -0.5000000  -0.5000000), wk =   0.0034722
        k(   44) = (   0.0833333   0.1666667   0.2500000), wk =   0.0277778
        k(   45) = (   0.0833333   0.1666667   0.3333333), wk =   0.0555556
        k(   46) = (   0.0833333   0.1666667   0.4166667), wk =   0.0555556
        k(   47) = (   0.0833333   0.1666667  -0.5000000), wk =   0.0555556
        k(   48) = (   0.0833333   0.1666667  -0.4166667), wk =   0.0277778
        k(   49) = (   0.0833333   0.2500000   0.3333333), wk =   0.0277778
        k(   50) = (   0.0833333   0.2500000   0.4166667), wk =   0.0555556
        k(   51) = (   0.0833333   0.2500000  -0.5000000), wk =   0.0555556
        k(   52) = (   0.0833333   0.2500000  -0.4166667), wk =   0.0555556
        k(   53) = (   0.0833333   0.2500000  -0.3333333), wk =   0.0555556
        k(   54) = (   0.0833333   0.2500000  -0.2500000), wk =   0.0555556
        k(   55) = (   0.0833333   0.2500000  -0.1666667), wk =   0.0277778
        k(   56) = (   0.0833333   0.3333333   0.4166667), wk =   0.0277778
        k(   57) = (   0.0833333   0.3333333  -0.5000000), wk =   0.0555556
        k(   58) = (   0.0833333   0.3333333  -0.4166667), wk =   0.0555556
        k(   59) = (   0.0833333   0.3333333  -0.3333333), wk =   0.0555556
        k(   60) = (   0.0833333   0.3333333  -0.2500000), wk =   0.0277778
        k(   61) = (   0.0833333   0.4166667  -0.5000000), wk =   0.0277778
        k(   62) = (   0.0833333   0.4166667  -0.4166667), wk =   0.0555556
        k(   63) = (   0.0833333   0.4166667  -0.3333333), wk =   0.0277778
        k(   64) = (   0.0833333  -0.5000000  -0.4166667), wk =   0.0138889
        k(   65) = (   0.1666667   0.3333333  -0.5000000), wk =   0.0277778
        k(   66) = (   0.1666667   0.3333333  -0.4166667), wk =   0.0555556
        k(   67) = (   0.1666667   0.3333333  -0.3333333), wk =   0.0277778
        k(   68) = (   0.1666667   0.4166667  -0.4166667), wk =   0.0277778
        k(   69) = (   0.1666667   0.4166667  -0.3333333), wk =   0.0555556
        k(   70) = (   0.1666667   0.4166667  -0.2500000), wk =   0.0277778
        k(   71) = (   0.1666667  -0.5000000  -0.3333333), wk =   0.0138889
        k(   72) = (   0.2500000  -0.5000000  -0.2500000), wk =   0.0069444

     Dense  grid:    21331 G-vectors     FFT dimensions: (  40,  40,  40)

     Smooth grid:     7631 G-vectors     FFT dimensions: (  27,  27,  27)

     Largest allocated arrays     est. size (Mb)     dimensions
        Kohn-Sham Wavefunctions         0.03 Mb     (     164,   12)
        NL pseudopotentials             0.05 Mb     (     164,   21)
        Each V/rho on FFT grid          0.17 Mb     (   11200)
        Each G-vector array             0.03 Mb     (    3556)
        G-vector shells                 0.00 Mb     (     248)
     Largest temporary arrays     est. size (Mb)     dimensions
        Auxiliary wavefunctions         0.12 Mb     (     164,   48)
        Each subspace H/S matrix        0.04 Mb     (      48,   48)
        Each <psi_i|beta_j> matrix      0.00 Mb     (      21,   12)
        Arrays for rho mixing           1.37 Mb     (   11200,    8)

     Initial potential from superposition of free atoms

     starting charge   15.99371, renormalised to   16.00000
     Starting wfc are    9 randomized atomic wfcs +    3 random wfc

     total cpu time spent up to now is        0.4 secs

     per-process dynamical memory:    10.3 Mb

     Self-consistent Calculation

     iteration #  1     ecut=    50.00 Ry     beta=0.70
     Davidson diagonalization with overlap
     ethr =  1.00E-02,  avg # of iterations =  5.0

     total cpu time spent up to now is        0.6 secs

     total energy              =    -143.86788897 Ry
     Harris-Foulkes estimate   =    -144.02488451 Ry
     estimated scf accuracy    <       0.21309600 Ry

     iteration #  2     ecut=    50.00 Ry     beta=0.70
     Davidson diagonalization with overlap
     ethr =  1.33E-03,  avg # of iterations =  2.0

     total cpu time spent up to now is        0.7 secs

     total energy              =    -143.91407071 Ry
     Harris-Foulkes estimate   =    -144.02063627 Ry
     estimated scf accuracy    <       0.22305436 Ry

     iteration #  3     ecut=    50.00 Ry     beta=0.70
     Davidson diagonalization with overlap
     ethr =  1.33E-03,  avg # of iterations =  2.0

     total cpu time spent up to now is        0.9 secs

     total energy              =    -143.96050384 Ry
     Harris-Foulkes estimate   =    -143.96078584 Ry
     estimated scf accuracy    <       0.00171673 Ry

     iteration #  4     ecut=    50.00 Ry     beta=0.70
     Davidson diagonalization with overlap
     ethr =  1.07E-05,  avg # of iterations =  2.5

     total cpu time spent up to now is        1.0 secs

     total energy              =    -143.96083539 Ry
     Harris-Foulkes estimate   =    -143.96086409 Ry
     estimated scf accuracy    <       0.00006847 Ry

     iteration #  5     ecut=    50.00 Ry     beta=0.70
     Davidson diagonalization with overlap
     ethr =  4.28E-07,  avg # of iterations =  1.6

     total cpu time spent up to now is        1.2 secs

     total energy              =    -143.96084229 Ry
     Harris-Foulkes estimate   =    -143.96084316 Ry
     estimated scf accuracy    <       0.00000378 Ry

     iteration #  6     ecut=    50.00 Ry     beta=0.70
     Davidson diagonalization with overlap
     ethr =  2.36E-08,  avg # of iterations =  2.0

     total cpu time spent up to now is        1.3 secs

     total energy              =    -143.96084338 Ry
     Harris-Foulkes estimate   =    -143.96084381 Ry
     estimated scf accuracy    <       0.00000122 Ry

     iteration #  7     ecut=    50.00 Ry     beta=0.70
     Davidson diagonalization with overlap
     ethr =  7.62E-09,  avg # of iterations =  2.0

     total cpu time spent up to now is        1.5 secs

     total energy              =    -143.96084355 Ry
     Harris-Foulkes estimate   =    -143.96084355 Ry
     estimated scf accuracy    <          6.5E-09 Ry

     iteration #  8     ecut=    50.00 Ry     beta=0.70
     Davidson diagonalization with overlap
     ethr =  4.04E-11,  avg # of iterations =  2.3

     total cpu time spent up to now is        1.6 secs

     total energy              =    -143.96084355 Ry
     Harris-Foulkes estimate   =    -143.96084355 Ry
     estimated scf accuracy    <          2.7E-10 Ry

     iteration #  9     ecut=    50.00 Ry     beta=0.70
     Davidson diagonalization with overlap
     ethr =  1.68E-12,  avg # of iterations =  2.0

     total cpu time spent up to now is        1.8 secs

     End of self-consistent calculation

          k = 0.0000 0.0000 0.0000 (   941 PWs)   bands (ev):

   -45.6826 -18.0217 -17.5370 -17.5370 -17.5370   1.2528   1.2528   1.2528
     7.8806  20.6484  20.6484  20.6484

     occupation numbers 
     1.0000   1.0000   1.0000   1.0000   1.0000   1.0000   1.0000   1.0000
     0.0000   0.0000   0.0000   0.0000

          k = 0.0589 0.0589-0.0589 (   941 PWs)   bands (ev):

   -45.6814 -18.1086 -17.5379 -17.5379 -17.4402   1.1019   1.2325   1.2325
     8.1431  19.6749  20.7728  20.7728

     occupation numbers 
     1.0000   1.0000   1.0000   1.0000   1.0000   1.0000   1.0000   1.0000
     0.0000   0.0000   0.0000   0.0000

          k = 0.1179 0.1179-0.1179 (   923 PWs)   bands (ev):

   -45.6782 -18.2677 -17.5405 -17.5405 -17.2537   0.7278   1.1776   1.1776
     8.8448  18.1700  21.1101  21.1101

     occupation numbers 
     1.0000   1.0000   1.0000   1.0000   1.0000   1.0000   1.0000   1.0000
     0.0000   0.0000   0.0000   0.0000

          k = 0.1768 0.1768-0.1768 (   941 PWs)   bands (ev):

   -45.6739 -18.4181 -17.5441 -17.5441 -17.0655   0.2815   1.1035   1.1035
     9.8125  16.8194  21.5446  21.5446

     occupation numbers 
     1.0000   1.0000   1.0000   1.0000   1.0000   1.0000   1.0000   1.0000
     0.0000   0.0000   0.0000   0.0000

          k = 0.2357 0.2357-0.2357 (   926 PWs)   bands (ev):

   -45.6695 -18.5349 -17.5476 -17.5476 -16.9101  -0.1138   1.0304   1.0304
    10.8814  15.6775  21.8934  21.8934

     occupation numbers 
     1.0000   1.0000   1.0000   1.0000   1.0000   1.0000   1.0000   1.0000
     0.0000   0.0000   0.0000   0.0000

          k = 0.2946 0.2946-0.2946 (   941 PWs)   bands (ev):

   -45.6663 -18.6081 -17.5502 -17.5502 -16.8084  -0.3797   0.9776   0.9776
    11.8828  14.7332  22.0505  22.0505

     occupation numbers 
     1.0000   1.0000   1.0000   1.0000   1.0000   1.0000   1.0000   1.0000
     0.0000   0.0000   0.0000   0.0000

          k =-0.3536-0.3536 0.3536 (   960 PWs)   bands (ev):

   -45.6652 -18.6330 -17.5511 -17.5511 -16.7730  -0.4730   0.9584   0.9584
    12.4153  14.2392  22.0835  22.0835

     occupation numbers 
     1.0000   1.0000   1.0000   1.0000   1.0000   1.0000   1.0000   1.0000
     0.0000   0.0000   0.0000   0.0000

          k = 0.1179 0.0000 0.0000 (   933 PWs)   bands (ev):

   -45.6810 -18.1249 -17.5413 -17.5413 -17.4154   1.0693   1.2198   1.2198
     8.2278  19.5192  20.7457  20.7457

     occupation numbers 
     1.0000   1.0000   1.0000   1.0000   1.0000   1.0000   1.0000   1.0000
     0.0000   0.0000   0.0000   0.0000

          k = 0.1768 0.0589-0.0589 (   932 PWs)   bands (ev):

   -45.6785 -18.2361 -17.5459 -17.5433 -17.2822   0.7920   1.1718   1.1737
     8.7767  18.3762  20.9378  20.9973

     occupation numbers 
     1.0000   1.0000   1.0000   1.0000   1.0000   1.0000   1.0000   1.0000
     0.0000   0.0000   0.0000   0.0000

          k = 0.2357 0.1179-0.1179 (   941 PWs)   bands (ev):

   -45.6746 -18.3683 -17.5507 -17.5455 -17.1182   0.3981   1.0994   1.1021
     9.6495  17.1196  21.2578  21.3680

     occupation numbers 
     1.0000   1.0000   1.0000   1.0000   1.0000   1.0000   1.0000   1.0000
     0.0000   0.0000   0.0000   0.0000

          k = 0.2946 0.1768-0.1768 (   940 PWs)   bands (ev):

   -45.6702 -18.4824 -17.5542 -17.5496 -16.9684   0.0143   1.0144   1.0298
    10.6857  16.0019  21.5522  21.5850

     occupation numbers 
     1.0000   1.0000   1.0000   1.0000   1.0000   1.0000   1.0000   1.0000
     0.0000   0.0000   0.0000   0.0000

          k = 0.3536 0.2357-0.2357 (   941 PWs)   bands (ev):

   -45.6666 -18.5622 -17.5556 -17.5547 -16.8583  -0.2733   0.9414   0.9738
    11.7293  15.0390  21.4473  21.8355

     occupation numbers 
     1.0000   1.0000   1.0000   1.0000   1.0000   1.0000   1.0000   1.0000
     0.0000   0.0000   0.0000   0.0000

          k =-0.2946-0.4125 0.4125 (   942 PWs)   bands (ev):

   -45.6648 -18.6004 -17.5594 -17.5545 -16.8038  -0.4139   0.8996   0.9484
    12.5123  14.3376  21.2776  22.0167

     occupation numbers 
     1.0000   1.0000   1.0000   1.0000   1.0000   1.0000   1.0000   1.0000
     0.0000   0.0000   0.0000   0.0000

          k =-0.2357-0.3536 0.3536 (   944 PWs)   bands (ev):

   -45.6652 -18.5943 -17.5623 -17.5512 -16.8123  -0.3850   0.8993   0.9601
    12.3120  14.5244  21.1578  22.1779

     occupation numbers 
     1.0000   1.0000   1.0000   1.0000   1.0000   1.0000   1.0000   1.0000
     0.0000   0.0000   0.0000   0.0000

          k =-0.1768-0.2946 0.2946 (   938 PWs)   bands (ev):

   -45.6677 -18.5445 -17.5624 -17.5466 -16.8829  -0.1916   0.9411   1.0060
    11.3886  15.3573  21.0857  22.2917

     occupation numbers 
     1.0000   1.0000   1.0000   1.0000   1.0000   1.0000   1.0000   1.0000
     0.0000   0.0000   0.0000   0.0000

          k =-0.1179-0.2357 0.2357 (   944 PWs)   bands (ev):

   -45.6717 -18.4547 -17.5594 -17.5418 -17.0061   0.1344   1.0150   1.0747
    10.3298  16.3700  21.0070  22.1012

     occupation numbers 
     1.0000   1.0000   1.0000   1.0000   1.0000   1.0000   1.0000   1.0000
     0.0000   0.0000   0.0000   0.0000

          k =-0.0589-0.1768 0.1768 (   931 PWs)   bands (ev):

   -45.6760 -18.3339 -17.5536 -17.5383 -17.1641   0.5299   1.1031   1.1481
     9.3313  17.5273  20.8845  21.5602

     occupation numbers 
     1.0000   1.0000   1.0000   1.0000   1.0000   1.0000   1.0000   1.0000
     0.0000   0.0000   0.0000   0.0000

          k =-0.0000-0.1179 0.1179 (   933 PWs)   bands (ev):

   -45.6796 -18.2025 -17.5457 -17.5368 -17.3276   0.8948   1.1838   1.2061
     8.5484  18.7621  20.7776  21.0561

     occupation numbers 
     1.0000   1.0000   1.0000   1.0000   1.0000   1.0000   1.0000   1.0000
     0.0000   0.0000   0.0000   0.0000

          k = 0.2357 0.0000 0.0000 (   941 PWs)   bands (ev):

   -45.6768 -18.2579 -17.5530 -17.5530 -17.2398   0.6619   1.1325   1.1325
     9.1403  17.8960  20.9968  20.9968

     occupation numbers 
     1.0000   1.0000   1.0000   1.0000   1.0000   1.0000   1.0000   1.0000
     0.0000   0.0000   0.0000   0.0000

          k = 0.2946 0.0589-0.0589 (   944 PWs)   bands (ev):

   -45.6736 -18.3210 -17.5598 -17.5580 -17.1529   0.3978   1.0615   1.0712
     9.8578  17.0269  21.1441  21.2041

     occupation numbers 
     1.0000   1.0000   1.0000   1.0000   1.0000   1.0000   1.0000   1.0000
     0.0000   0.0000   0.0000   0.0000

          k = 0.3536 0.1179-0.1179 (   942 PWs)   bands (ev):

   -45.6696 -18.3966 -17.5646 -17.5631 -17.0508   0.1105   0.9570   1.0045
    10.8046  16.1338  20.8223  21.4617

     occupation numbers 
     1.0000   1.0000   1.0000   1.0000   1.0000   1.0000   1.0000   1.0000
     0.0000   0.0000   0.0000   0.0000

          k = 0.4125 0.1768-0.1768 (   944 PWs)   bands (ev):

   -45.6661 -18.4620 -17.5717 -17.5661 -16.9582  -0.1235   0.8442   0.9500
    11.8422  15.3106  20.2833  21.6977

     occupation numbers 
     1.0000   1.0000   1.0000   1.0000   1.0000   1.0000   1.0000   1.0000
     0.0000   0.0000   0.0000   0.0000

          k =-0.2357-0.4714 0.4714 (   942 PWs)   bands (ev):

   -45.6638 -18.5054 -17.5819 -17.5638 -16.8941  -0.2591   0.7561   0.9214
    12.7802  14.5841  19.8897  21.9026

     occupation numbers 
     1.0000   1.0000   1.0000   1.0000   1.0000   1.0000   1.0000   1.0000
     0.0000   0.0000   0.0000   0.0000

          k =-0.1768-0.4125 0.4125 (   941 PWs)   bands (ev):

   -45.6635 -18.5213 -17.5898 -17.5584 -16.8704  -0.2761   0.7194   0.9262
    12.9620  14.4657  19.6992  22.1197

     occupation numbers 
     1.0000   1.0000   1.0000   1.0000   1.0000   1.0000   1.0000   1.0000
     0.0000   0.0000   0.0000   0.0000

          k =-0.1179-0.3536 0.3536 (   945 PWs)   bands (ev):

   -45.6653 -18.5087 -17.5918 -17.5514 -16.8921  -0.1758   0.7481   0.9635
    12.1481  15.1522  19.7427  22.4039

     occupation numbers 
     1.0000   1.0000   1.0000   1.0000   1.0000   1.0000   1.0000   1.0000
     0.0000   0.0000   0.0000   0.0000

          k =-0.0589-0.2946 0.2946 (   942 PWs)   bands (ev):

   -45.6685 -18.4691 -17.5856 -17.5446 -16.9569   0.0203   0.8397   1.0238
    11.1260  15.9379  20.0200  22.7475

     occupation numbers 
     1.0000   1.0000   1.0000   1.0000   1.0000   1.0000   1.0000   1.0000
     0.0000   0.0000   0.0000   0.0000

          k =-0.0000-0.2357 0.2357 (   935 PWs)   bands (ev):

   -45.6724 -18.4074 -17.5716 -17.5397 -17.0542   0.2731   0.9724   1.0915
    10.1373  16.7372  20.4486  22.2778

     occupation numbers 
     1.0000   1.0000   1.0000   1.0000   1.0000   1.0000   1.0000   1.0000
     0.0000   0.0000   0.0000   0.0000

          k = 0.3536 0.0000 0.0000 (   950 PWs)   bands (ev):

   -45.6711 -18.2940 -17.5691 -17.5691 -17.1645   0.2680   1.0199   1.0199
    10.4021  16.5419  21.0605  21.3089

     occupation numbers 
     1.0000   1.0000   1.0000   1.0000   1.0000   1.0000   1.0000   1.0000
     0.0000   0.0000   0.0000   0.0000

          k = 0.4125 0.0589-0.0589 (   945 PWs)   bands (ev):

   -45.6679 -18.2952 -17.5775 -17.5760 -17.1478   0.0986   0.9337   0.9621
    11.2114  15.9387  20.0000  21.4872

     occupation numbers 
     1.0000   1.0000   1.0000   1.0000   1.0000   1.0000   1.0000   1.0000
     0.0000   0.0000   0.0000   0.0000

          k = 0.4714 0.1179-0.1179 (   946 PWs)   bands (ev):

   -45.6647 -18.3190 -17.5920 -17.5787 -17.1012  -0.0318   0.7906   0.9131
    12.1858  15.3711  19.1469  21.6699

     occupation numbers 
     1.0000   1.0000   1.0000   1.0000   1.0000   1.0000   1.0000   1.0000
     0.0000   0.0000   0.0000   0.0000

          k =-0.1768-0.5303 0.5303 (   948 PWs)   bands (ev):

   -45.6625 -18.3551 -17.6123 -17.5765 -17.0378  -0.0896   0.6255   0.8852
    13.1805  14.8273  18.5536  21.8357

     occupation numbers 
     1.0000   1.0000   1.0000   1.0000   1.0000   1.0000   1.0000   1.0000
     0.0000   0.0000   0.0000   0.0000

          k =-0.1179-0.4714 0.4714 (   948 PWs)   bands (ev):

   -45.6618 -18.3954 -17.6273 -17.5699 -16.9782  -0.0825   0.5025   0.8857
    13.7042  14.5533  18.2719  22.0089

     occupation numbers 
     1.0000   1.0000   1.0000   1.0000   1.0000   1.0000   1.0000   1.0000
     0.0000   0.0000   0.0000   0.0000

          k =-0.0589-0.4125 0.4125 (   948 PWs)   bands (ev):

   -45.6629 -18.4331 -17.6277 -17.5608 -16.9398  -0.0581   0.5003   0.9147
    13.0343  15.0844  18.4185  22.2336

     occupation numbers 
     1.0000   1.0000   1.0000   1.0000   1.0000   1.0000   1.0000   1.0000
     0.0000   0.0000   0.0000   0.0000

          k = 0.0000-0.3536 0.3536 (   931 PWs)   bands (ev):

   -45.6653 -18.4603 -17.6118 -17.5515 -16.9323  -0.0372   0.6386   0.9652
    12.0794  15.5464  19.0567  22.5467

     occupation numbers 
     1.0000   1.0000   1.0000   1.0000   1.0000   1.0000   1.0000   1.0000
     0.0000   0.0000   0.0000   0.0000

          k = 0.4714 0.0000 0.0000 (   950 PWs)   bands (ev):

   -45.6655 -18.2042 -17.5854 -17.5854 -17.2382   0.0144   0.9142   0.9142
    11.8706  15.5551  18.9785  21.5918

     occupation numbers 
     1.0000   1.0000   1.0000   1.0000   1.0000   1.0000   1.0000   1.0000
     0.0000   0.0000   0.0000   0.0000

          k = 0.5303 0.0589-0.0589 (   950 PWs)   bands (ev):

   -45.6630 -18.1528 -17.6029 -17.5902 -17.2751  -0.0504   0.8231   0.8732
    12.7325  15.1923  18.0437  21.6236

     occupation numbers 
     1.0000   1.0000   1.0000   1.0000   1.0000   1.0000   1.0000   1.0000
     0.0000   0.0000   0.0000   0.0000

          k =-0.1179-0.5893 0.5893 (   946 PWs)   bands (ev):

   -45.6612 -18.1613 -17.6426 -17.5892 -17.2248  -0.0407   0.6414   0.8497
    13.6984  14.8964  17.3284  21.4390

     occupation numbers 
     1.0000   1.0000   1.0000   1.0000   1.0000   1.0000   1.0000   1.0000
     0.0000   0.0000   0.0000   0.0000

          k =-0.0589-0.5303 0.5303 (   947 PWs)   bands (ev):

   -45.6605 -18.2296 -17.6666 -17.5826 -17.1254   0.0600   0.4021   0.8496
    14.3690  14.7311  16.9866  21.3886

     occupation numbers 
     1.0000   1.0000   1.0000   1.0000   1.0000   1.0000   1.0000   1.0000
     0.0000   0.0000   0.0000   0.0000

          k =-0.0000-0.4714 0.4714 (   955 PWs)   bands (ev):

   -45.6611 -18.3317 -17.6577 -17.5722 -17.0219   0.1340   0.2679   0.8732
    13.8598  15.0460  17.3703  21.8389

     occupation numbers 
     1.0000   1.0000   1.0000   1.0000   1.0000   1.0000   1.0000   1.0000
     0.0000   0.0000   0.0000   0.0000

          k = 0.5893 0.0000 0.0000 (   950 PWs)   bands (ev):

   -45.6614 -18.0006 -17.5974 -17.5974 -17.4450  -0.0974   0.8409   0.8409
    13.4667  14.9583  17.0339  21.7843

     occupation numbers 
     1.0000   1.0000   1.0000   1.0000   1.0000   1.0000   1.0000   1.0000
     0.0000   0.0000   0.0000   0.0000

          k =-0.0589-0.6482 0.6482 (   954 PWs)   bands (ev):

   -45.6603 -17.9397 -17.6663 -17.5984 -17.4396  -0.0936   0.7578   0.8242
    14.3383  14.8150  16.2204  21.6418

     occupation numbers 
     1.0000   1.0000   1.0000   1.0000   1.0000   1.0000   1.0000   1.0000
     0.0000   0.0000   0.0000   0.0000

          k =-0.0000-0.5893 0.5893 (   954 PWs)   bands (ev):

   -45.6599 -18.0503 -17.6950 -17.5930 -17.2926  -0.0177   0.5741   0.8272
    14.7119  14.9283  16.0196  21.3200

     occupation numbers 
     1.0000   1.0000   1.0000   1.0000   1.0000   1.0000   1.0000   1.0000
     0.0000   0.0000   0.0000   0.0000

          k =-0.7071 0.0000 0.0000 (   950 PWs)   bands (ev):

   -45.6599 -17.7405 -17.7094 -17.6018 -17.6018  -0.1240   0.8149   0.8149
    14.7587  14.9238  15.4680  21.8524

     occupation numbers 
     1.0000   1.0000   1.0000   1.0000   1.0000   1.0000   1.0000   1.0000
     0.0000   0.0000   0.0000   0.0000

          k = 0.2357 0.1179-0.0000 (   936 PWs)   bands (ev):

   -45.6756 -18.3155 -17.5579 -17.5439 -17.1759   0.5349   1.0886   1.1306
     9.4059  17.5079  20.8321  21.4387

     occupation numbers 
     1.0000   1.0000   1.0000   1.0000   1.0000   1.0000   1.0000   1.0000
     0.0000   0.0000   0.0000   0.0000

          k = 0.2946 0.1768-0.0589 (   942 PWs)   bands (ev):

   -45.6717 -18.4050 -17.5687 -17.5462 -17.0536   0.2203   0.9820   1.0640
    10.3088  16.5485  20.6660  21.9901

     occupation numbers 
     1.0000   1.0000   1.0000   1.0000   1.0000   1.0000   1.0000   1.0000
     0.0000   0.0000   0.0000   0.0000

          k = 0.3536 0.2357-0.1179 (   941 PWs)   bands (ev):

   -45.6678 -18.4805 -17.5751 -17.5513 -16.9466  -0.0651   0.8808   0.9943
    11.3410  15.6464  20.4522  22.0226

     occupation numbers 
     1.0000   1.0000   1.0000   1.0000   1.0000   1.0000   1.0000   1.0000
     0.0000   0.0000   0.0000   0.0000

          k =-0.2946-0.4125 0.5303 (   941 PWs)   bands (ev):

   -45.6649 -18.5296 -17.5773 -17.5572 -16.8747  -0.2600   0.8091   0.9426
    12.3414  14.8240  20.2789  21.8325

     occupation numbers 
     1.0000   1.0000   1.0000   1.0000   1.0000   1.0000   1.0000   1.0000
     0.0000   0.0000   0.0000   0.0000

          k =-0.2357-0.3536 0.4714 (   944 PWs)   bands (ev):

   -45.6638 -18.5465 -17.5773 -17.5600 -16.8495  -0.3289   0.7833   0.9237
    12.9084  14.3365  20.2171  21.7558

     occupation numbers 
     1.0000   1.0000   1.0000   1.0000   1.0000   1.0000   1.0000   1.0000
     0.0000   0.0000   0.0000   0.0000

          k = 0.3536 0.1179 0.0000 (   948 PWs)   bands (ev):

   -45.6703 -18.3467 -17.5748 -17.5600 -17.1045   0.1996   0.9655   1.0165
    10.6144  16.3653  20.6057  21.6676

     occupation numbers 
     1.0000   1.0000   1.0000   1.0000   1.0000   1.0000   1.0000   1.0000
     0.0000   0.0000   0.0000   0.0000

          k = 0.4125 0.1768-0.0589 (   946 PWs)   bands (ev):

   -45.6668 -18.3808 -17.5871 -17.5657 -17.0440   0.0175   0.8382   0.9501
    11.5677  15.7120  19.8677  21.3570

     occupation numbers 
     1.0000   1.0000   1.0000   1.0000   1.0000   1.0000   1.0000   1.0000
     0.0000   0.0000   0.0000   0.0000

          k =-0.2357-0.4714 0.5893 (   945 PWs)   bands (ev):

   -45.6639 -18.4130 -17.5961 -17.5732 -16.9864  -0.1061   0.7071   0.8981
    12.5822  15.0802  19.2885  21.1402

     occupation numbers 
     1.0000   1.0000   1.0000   1.0000   1.0000   1.0000   1.0000   1.0000
     0.0000   0.0000   0.0000   0.0000

          k =-0.1768-0.4125 0.5303 (   950 PWs)   bands (ev):

   -45.6625 -18.4369 -17.6050 -17.5742 -16.9455  -0.1569   0.6148   0.8773
    13.4050  14.5150  18.9661  21.0804

     occupation numbers 
     1.0000   1.0000   1.0000   1.0000   1.0000   1.0000   1.0000   1.0000
     0.0000   0.0000   0.0000   0.0000

          k =-0.1179-0.3536 0.4714 (   945 PWs)   bands (ev):

   -45.6628 -18.4493 -17.6102 -17.5677 -16.9309  -0.1401   0.6001   0.8927
    13.1368  14.7637  18.9345  21.2692

     occupation numbers 
     1.0000   1.0000   1.0000   1.0000   1.0000   1.0000   1.0000   1.0000
     0.0000   0.0000   0.0000   0.0000

          k =-0.0589-0.2946 0.4125 (   942 PWs)   bands (ev):

   -45.6649 -18.4485 -17.6056 -17.5583 -16.9469  -0.0671   0.6773   0.9392
    12.2066  15.3922  19.2499  21.6642

     occupation numbers 
     1.0000   1.0000   1.0000   1.0000   1.0000   1.0000   1.0000   1.0000
     0.0000   0.0000   0.0000   0.0000

          k =-0.0000-0.2357 0.3536 (   941 PWs)   bands (ev):

   -45.6682 -18.4334 -17.5904 -17.5502 -16.9910   0.0559   0.8224   1.0029
    11.2056  15.9708  19.8852  22.1735

     occupation numbers 
     1.0000   1.0000   1.0000   1.0000   1.0000   1.0000   1.0000   1.0000
     0.0000   0.0000   0.0000   0.0000

          k = 0.4714 0.1179 0.0000 (   945 PWs)   bands (ev):

   -45.6651 -18.2631 -17.5918 -17.5838 -17.1635   0.0022   0.8499   0.8973
    12.0404  15.4983  19.0346  21.2255

     occupation numbers 
     1.0000   1.0000   1.0000   1.0000   1.0000   1.0000   1.0000   1.0000
     0.0000   0.0000   0.0000   0.0000

          k =-0.1768-0.5303 0.6482 (   947 PWs)   bands (ev):

   -45.6626 -18.2577 -17.6122 -17.5939 -17.1379  -0.0344   0.6982   0.8437
    13.0060  15.1185  18.2452  20.8360

     occupation numbers 
     1.0000   1.0000   1.0000   1.0000   1.0000   1.0000   1.0000   1.0000
     0.0000   0.0000   0.0000   0.0000

          k =-0.1179-0.4714 0.5893 (   946 PWs)   bands (ev):

   -45.6611 -18.2820 -17.6380 -17.5924 -17.0825   0.0033   0.5052   0.8242
    13.9272  14.7371  17.7473  20.5594

     occupation numbers 
     1.0000   1.0000   1.0000   1.0000   1.0000   1.0000   1.0000   1.0000
     0.0000   0.0000   0.0000   0.0000

          k =-0.0589-0.4125 0.5303 (   946 PWs)   bands (ev):

   -45.6611 -18.3323 -17.6469 -17.5831 -17.0212   0.0632   0.3729   0.8385
    13.9461  14.8483  17.6911  20.6412

     occupation numbers 
     1.0000   1.0000   1.0000   1.0000   1.0000   1.0000   1.0000   1.0000
     0.0000   0.0000   0.0000   0.0000

          k =-0.0000-0.3536 0.4714 (   939 PWs)   bands (ev):

   -45.6625 -18.3941 -17.6334 -17.5702 -16.9726   0.0049   0.4669   0.8812
    13.1405  15.1935  18.2402  21.0822

     occupation numbers 
     1.0000   1.0000   1.0000   1.0000   1.0000   1.0000   1.0000   1.0000
     0.0000   0.0000   0.0000   0.0000

          k =-0.1179-0.5893 0.7071 (   948 PWs)   bands (ev):

   -45.6613 -18.0851 -17.6297 -17.6043 -17.3102  -0.0632   0.7696   0.8033
    13.5976  14.9640  17.1752  21.1424

     occupation numbers 
     1.0000   1.0000   1.0000   1.0000   1.0000   1.0000   1.0000   1.0000
     0.0000   0.0000   0.0000   0.0000

          k =-0.0589-0.5303 0.6482 (   947 PWs)   bands (ev):

   -45.6602 -18.1003 -17.6737 -17.6069 -17.2435  -0.0012   0.5953   0.7802
    14.4817  14.8160  16.5938  20.5892

     occupation numbers 
     1.0000   1.0000   1.0000   1.0000   1.0000   1.0000   1.0000   1.0000
     0.0000   0.0000   0.0000   0.0000

          k =-0.0000-0.4714 0.5893 (   946 PWs)   bands (ev):

   -45.6601 -18.2011 -17.6756 -17.5981 -17.1331   0.1310   0.3564   0.7969
    14.5258  14.9458  16.7331  20.3498

     occupation numbers 
     1.0000   1.0000   1.0000   1.0000   1.0000   1.0000   1.0000   1.0000
     0.0000   0.0000   0.0000   0.0000

          k =-0.7071 0.1179 0.0000 (   958 PWs)   bands (ev):

   -45.6599 -17.9386 -17.7021 -17.6089 -17.3927  -0.0702   0.7411   0.7661
    14.7840  14.9212  15.7503  21.1045

     occupation numbers 
     1.0000   1.0000   1.0000   1.0000   1.0000   1.0000   1.0000   1.0000
     0.0000   0.0000   0.0000   0.0000

          k =-0.2357-0.4714 0.7071 (   937 PWs)   bands (ev):

   -45.6639 -18.3598 -17.6093 -17.5774 -17.0338  -0.0195   0.6815   0.8775
    12.4995  15.3590  18.9431  20.7518

     occupation numbers 
     1.0000   1.0000   1.0000   1.0000   1.0000   1.0000   1.0000   1.0000
     0.0000   0.0000   0.0000   0.0000

          k =-0.1768-0.4125 0.6482 (   940 PWs)   bands (ev):

   -45.6619 -18.3407 -17.6244 -17.5931 -17.0244  -0.0012   0.5296   0.8168
    13.4517  14.9946  18.3070  20.2024

     occupation numbers 
     1.0000   1.0000   1.0000   1.0000   1.0000   1.0000   1.0000   1.0000
     0.0000   0.0000   0.0000   0.0000

          k =-0.1179-0.3536 0.5893 (   942 PWs)   bands (ev):

   -45.6611 -18.3328 -17.6294 -17.6007 -17.0206   0.0224   0.4580   0.7937
    14.0739  14.6261  18.0841  19.9707

     occupation numbers 
     1.0000   1.0000   1.0000   1.0000   1.0000   1.0000   1.0000   1.0000
     0.0000   0.0000   0.0000   0.0000

          k =-0.1179-0.4714 0.7071 (   942 PWs)   bands (ev):

   -45.6609 -18.2140 -17.6322 -17.6233 -17.1373   0.0304   0.5837   0.7413
    13.9101  14.9704  17.5424  19.9682

     occupation numbers 
     1.0000   1.0000   1.0000   1.0000   1.0000   1.0000   1.0000   1.0000
     0.0000   0.0000   0.0000   0.0000

          k =-0.0589-0.4125 0.6482 (   943 PWs)   bands (ev):

   -45.6601 -18.2131 -17.6559 -17.6278 -17.1080   0.1548   0.4028   0.7038
    14.6151  14.8044  17.2417  19.4052

     occupation numbers 
     1.0000   1.0000   1.0000   1.0000   1.0000   1.0000   1.0000   1.0000
     0.0000   0.0000   0.0000   0.0000

          k = 0.0000-0.3536 0.5893 (   944 PWs)   bands (ev):

   -45.6605 -18.2637 -17.6494 -17.6160 -17.0669   0.1693   0.3481   0.7395
    14.2505  14.9637  17.5451  19.5003

     occupation numbers 
     1.0000   1.0000   1.0000   1.0000   1.0000   1.0000   1.0000   1.0000
     0.0000   0.0000   0.0000   0.0000

          k =-0.7071 0.2357 0.0000 (   946 PWs)   bands (ev):

   -45.6598 -18.1177 -17.6822 -17.6284 -17.1915   0.0826   0.5489   0.6697
    14.8376  14.9104  16.5017  19.7254

     occupation numbers 
     1.0000   1.0000   1.0000   1.0000   1.0000   1.0000   1.0000   1.0000
     0.0000   0.0000   0.0000   0.0000

          k =-0.7071 0.3536 0.0000 (   952 PWs)   bands (ev):

   -45.6598 -18.1827 -17.6552 -17.6552 -17.1153   0.3060   0.3060   0.6221
    14.8841  14.8841  17.1567  18.8331

     occupation numbers 
     1.0000   1.0000   1.0000   1.0000   1.0000   1.0000   1.0000   1.0000
     0.0000   0.0000   0.0000   0.0000

     the Fermi energy is     5.9121 ev

!    total energy              =    -143.96084355 Ry
     Harris-Foulkes estimate   =    -143.96084355 Ry
     estimated scf accuracy    <          4.3E-12 Ry

     The total energy is the sum of the following terms:

     one-electron contribution =     -83.49879681 Ry
     hartree contribution      =      48.83409529 Ry
     xc contribution           =     -23.86775310 Ry
     ewald contribution        =     -85.42838893 Ry
     smearing contrib. (-TS)   =      -0.00000000 Ry

     convergence has been achieved in   9 iterations

     Writing output data file aiida.save
 
     init_run     :      0.12s CPU      0.17s WALL (       1 calls)
     electrons    :      1.36s CPU      1.42s WALL (       1 calls)

     Called by init_run:
     wfcinit      :      0.04s CPU      0.04s WALL (       1 calls)
     potinit      :      0.00s CPU      0.01s WALL (       1 calls)

     Called by electrons:
     c_bands      :      0.95s CPU      0.97s WALL (       9 calls)
     sum_band     :      0.28s CPU      0.28s WALL (       9 calls)
     v_of_rho     :      0.04s CPU      0.06s WALL (      10 calls)
     v_h          :      0.00s CPU      0.00s WALL (      10 calls)
     v_xc         :      0.04s CPU      0.06s WALL (      10 calls)
     newd         :      0.08s CPU      0.09s WALL (      10 calls)
     mix_rho      :      0.01s CPU      0.01s WALL (       9 calls)

     Called by c_bands:
     init_us_2    :      0.03s CPU      0.02s WALL (     342 calls)
     cegterg      :      0.87s CPU      0.89s WALL (     162 calls)

     Called by sum_band:
     sum_band:bec :      0.00s CPU      0.00s WALL (     162 calls)
     addusdens    :      0.12s CPU      0.11s WALL (       9 calls)

     Called by *egterg:
     h_psi        :      0.62s CPU      0.65s WALL (     584 calls)
     s_psi        :      0.01s CPU      0.02s WALL (     584 calls)
     g_psi        :      0.00s CPU      0.00s WALL (     404 calls)
     cdiaghg      :      0.18s CPU      0.16s WALL (     566 calls)
     cegterg:over :      0.04s CPU      0.04s WALL (     404 calls)
     cegterg:upda :      0.01s CPU      0.01s WALL (     404 calls)
     cegterg:last :      0.01s CPU      0.01s WALL (     162 calls)

     Called by h_psi:
     h_psi:vloc   :      0.57s CPU      0.60s WALL (     584 calls)
     h_psi:vnl    :      0.06s CPU      0.05s WALL (     584 calls)
     add_vuspsi   :      0.02s CPU      0.02s WALL (     584 calls)

     General routines
     calbec       :      0.04s CPU      0.04s WALL (     746 calls)
     fft          :      0.04s CPU      0.06s WALL (     155 calls)
     ffts         :      0.00s CPU      0.00s WALL (      19 calls)
     fftw         :      0.61s CPU      0.62s WALL (   11860 calls)
     interpolate  :      0.00s CPU      0.01s WALL (      19 calls)
     davcio       :      0.00s CPU      0.00s WALL (      18 calls)
 
     Parallel routines
     fft_scatter  :      0.24s CPU      0.21s WALL (   12034 calls)
 
     PWSCF        :     1.57s CPU         2.21s WALL

 
   This run was terminated on:  13:21:26  22Sep2016            

=------------------------------------------------------------------------------=
   JOB DONE.
=------------------------------------------------------------------------------=
